          AutoDock 4.2 Release 4.2.6   
         (C) 1989-2012 The Scripps Research Institute
        AutoDock comes with ABSOLUTELY NO WARRANTY.
        AutoDock is free software, and you are welcome
        to redistribute it under certain conditions;
        for details type 'autodock4 -C'

                     main.cc  $Revision: 1.213 $

                   Compiled on Jul 18 2014 at 18:34:22


This file was created at:			11:34 57" a.m., 09/03/2025
                   on host:		"anes-edwardb-linuxbox"
Current Working Directory = "/mnt/cce9630f-8b3b-4312-932d-ff04311ba514/SSD/autodockZN_filesAndTutorial/autodockZN/files"

      ________________________________________________________________

                   SETTING UP DEFAULT PARAMETER LIBRARY
      ________________________________________________________________


Random number generator was seeded with values 1224922, 1756924497.
Docking parameter file (DPF) used for this docking:		ligand_protein_tz.dpf
DPF> autodock_parameter_version 4.2       # used by autodock to validate parameter set

	Autodock parameter version 4.2.
DPF> outlev 1                             # diagnostic output level

Output Level = 1  ADT-COMPATIBLE OUTPUT DURING DOCKING.
DPF> intelec                              # calculate internal electrostatics

Electrostatic energies will be calculated for all non-bonds between moving atoms.
DPF> seed pid time                        # seeds for random generator

Random number generator was seeded with values 1224922, 1756924497.
DPF> ligand_types A C Cl NA OA N HD       # atoms types in ligand

DPF> fld protein_tz.maps.fld              # grid_data_file

Opening Grid Map Dimensions file:		protein_tz.maps.fld
Grid Point Spacing =				0.375 Angstroms

Even Number of User-specified Grid Points =	40 x-points
						30 y-points
						50 z-points

Coordinates of Central Grid Point of Maps =	(18.000, 134.000, -1.000)
Macromolecule file used to create Grid Maps =	protein_tz.pdbqt
Grid Parameter file used to create Grid Maps =	protein_tz.gpf
Minimum coordinates in grid = (10.500, 128.375, -10.375)
Maximum coordinates in grid = (25.500, 139.625, 8.375)

DPF> map protein_tz.A.map                 # atom-specific affinity map

DPF> map protein_tz.C.map                 # atom-specific affinity map

DPF> map protein_tz.Cl.map                # atom-specific affinity map

DPF> map protein_tz.NA.map                # atom-specific affinity map

DPF> map protein_tz.OA.map                # atom-specific affinity map

DPF> map protein_tz.N.map                 # atom-specific affinity map

DPF> map protein_tz.HD.map                # atom-specific affinity map

DPF> elecmap protein_tz.e.map             # electrostatics map

DPF> desolvmap protein_tz.d.map           # desolvation map

DPF> move ligand.pdbqt                    # small molecule

1,4-interactions will be _ignored_ in the non-bonded internal energy calculation.

Ligand PDBQT file = "ligand.pdbqt"

INPUT LIGAND PDBQT FILE:
________________________

INPUT-LIGAND-PDBQT: REMARK  5 active torsions:
INPUT-LIGAND-PDBQT: REMARK  status: ('A' for Active; 'I' for Inactive)
INPUT-LIGAND-PDBQT: REMARK    1  A    between atoms: C_15  and  N_1 
INPUT-LIGAND-PDBQT: REMARK    2  A    between atoms: N_4  and  C_8 
INPUT-LIGAND-PDBQT: REMARK    3  A    between atoms: C_16  and  C_15 
INPUT-LIGAND-PDBQT: REMARK    4  A    between atoms: N_21  and  C_22 
INPUT-LIGAND-PDBQT: REMARK    5  A    between atoms: C_23  and  C_22 
INPUT-LIGAND-PDBQT: ROOT
INPUT-LIGAND-PDBQT: ATOM      1  C   LIG d   1     264.440  77.563-486.429  0.00  0.00    -0.040 A 
INPUT-LIGAND-PDBQT: ATOM      2  C   LIG d   1     263.812  78.764-486.786  0.00  0.00     0.010 A 
INPUT-LIGAND-PDBQT: ATOM      3  C   LIG d   1     264.548  79.827-487.319  0.00  0.00     0.023 A 
INPUT-LIGAND-PDBQT: ATOM      4  C   LIG d   1     265.946  79.708-487.505  0.00  0.00     0.044 A 
INPUT-LIGAND-PDBQT: ATOM      5  C   LIG d   1     266.584  78.532-487.154  0.00  0.00     0.023 A 
INPUT-LIGAND-PDBQT: ATOM      6  C   LIG d   1     265.838  77.458-486.615  0.00  0.00     0.010 A 
INPUT-LIGAND-PDBQT: ATOM      7  C   LIG d   1     266.639  80.716-488.023  0.00  0.00     0.099 C 
INPUT-LIGAND-PDBQT: ATOM      8  N   LIG d   1     267.254  81.603-488.480  0.00  0.00    -0.191 NA
INPUT-LIGAND-PDBQT: ENDROOT
INPUT-LIGAND-PDBQT: BRANCH   1   9
INPUT-LIGAND-PDBQT: ATOM      9  C   LIG d   1     263.642  76.385-485.853  0.00  0.00     0.168 C 
INPUT-LIGAND-PDBQT: BRANCH   9  10
INPUT-LIGAND-PDBQT: ATOM     10  N   LIG d   1     262.318  76.183-486.488  0.00  0.00    -0.340 N 
INPUT-LIGAND-PDBQT: ATOM     11  C   LIG d   1     262.153  76.133-487.796  0.00  0.00     0.183 A 
INPUT-LIGAND-PDBQT: ATOM     12  N   LIG d   1     260.804  75.932-488.061  0.00  0.00    -0.360 N 
INPUT-LIGAND-PDBQT: ATOM     13  C   LIG d   1     260.130  75.862-486.796  0.00  0.00     0.115 A 
INPUT-LIGAND-PDBQT: ATOM     14  HN  LIG d   1     260.373  75.850-488.982  1.00  0.00     0.166 HD
INPUT-LIGAND-PDBQT: ATOM     15  C   LIG d   1     261.106  76.020-485.880  0.00  0.00     0.056 A 
INPUT-LIGAND-PDBQT: BRANCH  15  16
INPUT-LIGAND-PDBQT: ATOM     16  C   LIG d   1     260.943  76.034-484.362  0.00  0.00     0.331 C 
INPUT-LIGAND-PDBQT: BRANCH  16  17
INPUT-LIGAND-PDBQT: ATOM     17  N   LIG d   1     259.580  75.615-484.032  0.00  0.00     0.104 N 
INPUT-LIGAND-PDBQT: ATOM     18  C   LIG d   1     258.751  76.823-484.142  0.00  0.00     0.375 C 
INPUT-LIGAND-PDBQT: ATOM     19  C   LIG d   1     257.240  76.441-484.135  0.00  0.00     0.253 C 
INPUT-LIGAND-PDBQT: ATOM     20  O   LIG d   1     256.414  77.229-484.553  0.00  0.00    -0.271 OA
INPUT-LIGAND-PDBQT: ATOM     21  N   LIG d   1     256.861  75.185-483.649  0.00  0.00    -0.315 N 
INPUT-LIGAND-PDBQT: ATOM     22  C   LIG d   1     257.912  74.288-483.163  0.00  0.00     0.162 C 
INPUT-LIGAND-PDBQT: ATOM     23  C   LIG d   1     259.309  74.833-482.822  0.00  0.00     0.293 C 
INPUT-LIGAND-PDBQT: BRANCH  21  24
INPUT-LIGAND-PDBQT: ATOM     24  C   LIG d   1     255.560  74.736-483.601  0.00  0.00     0.038 A 
INPUT-LIGAND-PDBQT: ATOM     25  C   LIG d   1     255.089  74.212-484.795  0.00  0.00     0.053 A 
INPUT-LIGAND-PDBQT: ATOM     26  C   LIG d   1     253.794  73.706-484.913  0.00  0.00     0.036 A 
INPUT-LIGAND-PDBQT: ATOM     27 CL   LIG d   1     253.322  73.068-486.444  0.00  0.00    -0.084 Cl
INPUT-LIGAND-PDBQT: ATOM     28  C   LIG d   1     252.934  73.729-483.795  0.00  0.00     0.024 A 
INPUT-LIGAND-PDBQT: ATOM     29  C   LIG d   1     253.386  74.261-482.560  0.00  0.00     0.004 A 
INPUT-LIGAND-PDBQT: ATOM     30  C   LIG d   1     254.702  74.765-482.447  0.00  0.00     0.030 A 
INPUT-LIGAND-PDBQT: ENDBRANCH  21  24
INPUT-LIGAND-PDBQT: ENDBRANCH  16  17
INPUT-LIGAND-PDBQT: ENDBRANCH  15  16
INPUT-LIGAND-PDBQT: ENDBRANCH   9  10
INPUT-LIGAND-PDBQT: ENDBRANCH   1   9
INPUT-LIGAND-PDBQT: TORSDOF 5
________________________________________________________________________________

Total charge on ligand                               =	+0.999 e
REMARK  5 active torsions:
REMARK  status: ('A' for Active; 'I' for Inactive)
REMARK    1  A    between atoms: C_15  and  N_1 
REMARK    2  A    between atoms: N_4  and  C_8 
REMARK    3  A    between atoms: C_16  and  C_15 
REMARK    4  A    between atoms: N_21  and  C_22 
REMARK    5  A    between atoms: C_23  and  C_22 


Number of Rotatable Bonds in Small Molecule =	5 torsions
Number of atoms in ligand:  30

Number of non-hydrogen atoms in ligand:  29

Number of vibrational degrees of freedom of ligand:  84


Number of torsional degrees of freedom = 5
Estimated loss of torsional free energy upon binding = +1.4915 kcal/mol


DPF> about 260.046 76.382 -485.586            # small molecule center

Small molecule center of rotation =	(+260.046, +76.382, -485.586)

DPF> tran0 random                         # initial coordinates/A or random

Initial translation =			(16.560, 130.092, 4.799) Angstroms
DPF> quaternion0 random                   # initial orientation

Each run will begin with a new, random initial orientation.
Initial quaternion,  (x,y,z,w) =	( -0.027, 0.810, 0.492, 0.317 ),
DPF> dihe0 random                         # initial dihedrals (relative) or random

DPF> torsdof 5                            # torsional degrees of freedom

Number of torsional degrees of freedom = 5
Free energy coefficient for torsional degrees of freedom = 0.2983, the factory default value.

Estimated loss of torsional free energy upon binding = +1.4915 kcal/mol

DPF> rmstol 2.0                           # cluster_tolerance/A

Maximum RMS tolerance for conformational cluster analysis = 2.00 Angstroms
DPF> extnrg 1000.0                        # external grid energy

External grid energy (beyond grid map walls) = 1000.00

DPF> e0max 0.0 10000                      # max initial energy; max number of retries

Using user-specified maximum number of retries for simanneal initialization, 10000 retries.
If the simanneal initial energy is greater than e0max, 0.000,
then a new, random initial state will be created.

DPF> ga_pop_size 150                      # number of individuals in population

A population of 150 individuals will be used
DPF> ga_num_evals 2500000                 # maximum number of energy evaluations

There will be at most 2500000 function evaluations used.
DPF> ga_num_generations 27000             # maximum number of generations

The GA will run for at most 27000 generations.
DPF> ga_elitism 1                         # number of top individuals to survive to next generation

The 1 best will be preserved each GA generation.
DPF> ga_mutation_rate 0.02                # rate of gene mutation

The mutation rate is 0.020000.
DPF> ga_crossover_rate 0.8                # rate of crossover

The crossover rate is 0.800000.
DPF> ga_window_size 10                    # 

The GA's selection window is 10 generations.
DPF> ga_cauchy_alpha 0.0                  # Alpha parameter of Cauchy distribution

The alpha parameter (for the Cauchy distribution) is being set to 0.000000.
DPF> ga_cauchy_beta 1.0                   # Beta parameter Cauchy distribution

The beta parameter (for the Cauchy distribution) is being set to 1.000000.
DPF> set_ga                               # set the above parameters for GA or LGA

DPF> sw_max_its 300                       # iterations of Solis & Wets local search

Solis & Wets algorithms will perform at most 300 iterations.
DPF> sw_max_succ 4                        # consecutive successes before changing rho

Solis & Wets algorithms expand rho every 4 in a row successes.
DPF> sw_max_fail 4                        # consecutive failures before changing rho

Solis & Wets algorithms contract rho every 4 in a row failures.
DPF> sw_rho 1.0                           # size of local search space to sample

rho is set to 1.000000.
DPF> sw_lb_rho 0.01                       # lower bound on rho

rho will never get smaller than 0.010000.
DPF> ls_search_freq 0.06                  # probability of performing local search on individual

Local search will be performed with frequency 0.060000.
DPF> set_psw1                             # set the above pseudo-Solis & Wets parameters

Creating a new Local Search object using the pseudo-Solis-Wets algorithm (pSW1) with the current settings.

DPF> unbound_model bound                  # state of unbound ligand

DPF> ga_run 10                            # do this many hybrid GA-LS runs

centering ligand on specified point: 260.046 76.382 -485.586
Furthest true ligand atom from "about" center is 9.359 Angstroms (maxrad).
Number of requested GA dockings = 10 runs
Unbound model to be used is 'same as bound' [AutoDock 4.2 default].

	BEGINNING GENETIC ALGORITHM DOCKING 1 of 10
Run: 1 Seed: 842331690 1554171305 [ Run 1 of 10 GA/GALS ]
Beginning LAMARCKIAN GENETIC ALGORITHM (LGA), with a maximum of 2500000 energy evaluations.

Final-Value: -13.812


	FINAL GENETIC ALGORITHM DOCKED STATE
	_______________________________________________


Detailed state:  trans 23.598 132.888 -4.530 quatxyzw -0.049204 -0.865541 -0.450207 -0.213850 center 260.046 76.382 -485.586 ntor 5 62.3638 -91.1195 -101.8203 73.2541 -93.3271
State:	 23.598 132.888  -4.530  -0.050 -0.886 -0.461 -155.304     62.36  -91.12 -101.82   73.25  -93.33

DOCKED: MODEL        1
DOCKED: USER    Run = 1
DOCKED: USER    DPF = ligand_protein_tz.dpf
DOCKED: USER  
DOCKED: USER    Estimated Free Energy of Binding    =   -9.64 kcal/mol  [=(1)+(2)+(3)-(4)]
DOCKED: USER    Estimated Inhibition Constant, Ki   =   86.08 nM (nanomolar)  [Temperature = 298.15 K]
DOCKED: USER    
DOCKED: USER    (1) Final Intermolecular Energy     =  -11.13 kcal/mol
DOCKED: USER        vdW + Hbond + desolv Energy     =  -10.48 kcal/mol
DOCKED: USER        Electrostatic Energy            =   -0.65 kcal/mol
DOCKED: USER    (2) Final Total Internal Energy     =   -2.68 kcal/mol
DOCKED: USER    (3) Torsional Free Energy           =   +1.49 kcal/mol
DOCKED: USER    (4) Unbound System's Energy  [=(2)] =   -2.68 kcal/mol
DOCKED: USER    
DOCKED: USER    
DOCKED: USER    NEWDPF move ligand.pdbqt
DOCKED: USER    NEWDPF about 260.046000 76.382000 -485.586000
DOCKED: USER    NEWDPF tran0 23.597863 132.887577 -4.530031
DOCKED: USER    NEWDPF quaternion0 -0.049204 -0.865541 -0.450207 -0.213850
DOCKED: USER    NEWDPF axisangle0 -0.050370 -0.886038 -0.460868 -155.303882
DOCKED: USER    NEWDPF quat0 -0.050370 -0.886038 -0.460868 -155.303882
DOCKED: USER    NEWDPF dihe0 62.36 -91.12 -101.82 73.25 -93.33 
DOCKED: USER  keepresnum = 1 
DOCKED: USER  
DOCKED: REMARK  5 active torsions:
DOCKED: REMARK  status: ('A' for Active; 'I' for Inactive)
DOCKED: REMARK    1  A    between atoms: C_15  and  N_1 
DOCKED: REMARK    2  A    between atoms: N_4  and  C_8 
DOCKED: REMARK    3  A    between atoms: C_16  and  C_15 
DOCKED: REMARK    4  A    between atoms: N_21  and  C_22 
DOCKED: REMARK    5  A    between atoms: C_23  and  C_22 
DOCKED: USER                              x       y       z     vdW  Elec       q    Type
DOCKED: USER                           _______ _______ _______ _____ _____    ______ ____
DOCKED: ROOT
DOCKED: ATOM      1  C   LIG d   1      20.230 132.438  -1.389 -0.37 +0.04    -0.040 A 
DOCKED: ATOM      2  C   LIG d   1      21.247 132.928  -0.559 -0.32 -0.01    +0.010 A 
DOCKED: ATOM      3  C   LIG d   1      21.051 133.049   0.820 -0.32 -0.03    +0.023 A 
DOCKED: ATOM      4  C   LIG d   1      19.815 132.680   1.403 -0.37 -0.05    +0.044 A 
DOCKED: ATOM      5  C   LIG d   1      18.798 132.199   0.599 -0.40 -0.02    +0.023 A 
DOCKED: ATOM      6  C   LIG d   1      18.998 132.077  -0.796 -0.41 -0.01    +0.010 A 
DOCKED: ATOM      7  C   LIG d   1      19.638 132.785   2.715 -0.47 -0.11    +0.099 C 
DOCKED: ATOM      8  N   LIG d   1      19.477 132.877   3.873 -4.16 +0.23    -0.191 NA
DOCKED: ENDROOT
DOCKED: BRANCH   1   9
DOCKED: ATOM      9  C   LIG d   1      20.436 132.290  -2.903 -0.31 -0.12    +0.168 C 
DOCKED: BRANCH   9  10
DOCKED: ATOM     10  N   LIG d   1      20.885 133.531  -3.577 -0.20 +0.23    -0.340 N 
DOCKED: ATOM     11  C   LIG d   1      21.998 133.599  -4.282 -0.30 -0.13    +0.183 A 
DOCKED: ATOM     12  N   LIG d   1      22.125 134.891  -4.778 -0.27 +0.24    -0.360 N 
DOCKED: ATOM     13  C   LIG d   1      20.988 135.635  -4.317 -0.31 -0.07    +0.115 A 
DOCKED: ATOM     14  HN  LIG d   1      22.884 135.244  -5.360 -0.27 -0.12    +0.166 HD
DOCKED: ATOM     15  C   LIG d   1      20.272 134.751  -3.594 -0.23 -0.04    +0.056 A 
DOCKED: BRANCH  15  16
DOCKED: ATOM     16  C   LIG d   1      18.957 135.018  -2.864 -0.05 -0.20    +0.331 C 
DOCKED: BRANCH  16  17
DOCKED: ATOM     17  N   LIG d   1      19.256 135.412  -1.487 -0.07 -0.07    +0.104 N 
DOCKED: ATOM     18  C   LIG d   1      17.956 135.537  -0.814 -0.05 -0.25    +0.375 C 
DOCKED: ATOM     19  C   LIG d   1      18.156 135.631   0.729 -0.12 -0.19    +0.253 C 
DOCKED: ATOM     20  O   LIG d   1      17.225 135.396   1.476 -0.22 +0.22    -0.271 OA
DOCKED: ATOM     21  N   LIG d   1      19.415 135.980   1.229 -0.02 +0.25    -0.315 N 
DOCKED: ATOM     22  C   LIG d   1      20.488 136.247   0.269 -0.06 -0.13    +0.162 C 
DOCKED: ATOM     23  C   LIG d   1      20.164 136.529  -1.208 -0.03 -0.21    +0.293 C 
DOCKED: BRANCH  21  24
DOCKED: ATOM     24  C   LIG d   1      19.711 136.087   2.570 -0.10 -0.03    +0.038 A 
DOCKED: ATOM     25  C   LIG d   1      20.993 135.685   2.908 -0.09 -0.05    +0.053 A 
DOCKED: ATOM     26  C   LIG d   1      21.455 135.738   4.224 -0.12 -0.03    +0.036 A 
DOCKED: ATOM     27 CL   LIG d   1      23.073 135.224   4.525 -0.23 +0.07    -0.084 Cl
DOCKED: ATOM     28  C   LIG d   1      20.599 136.207   5.243 -0.21 -0.02    +0.024 A 
DOCKED: ATOM     29  C   LIG d   1      19.279 136.623   4.928 -0.21 -0.00    +0.004 A 
DOCKED: ATOM     30  C   LIG d   1      18.822 136.573   3.591 -0.17 -0.03    +0.030 A 
DOCKED: ENDBRANCH  21  24
DOCKED: ENDBRANCH  16  17
DOCKED: ENDBRANCH  15  16
DOCKED: ENDBRANCH   9  10
DOCKED: ENDBRANCH   1   9
DOCKED: TORSDOF 5
DOCKED: TER
DOCKED: ENDMDL
________________________________________________________________________________


	BEGINNING GENETIC ALGORITHM DOCKING 2 of 10
Run: 2 Seed: 867594707 327777056 [ Run 2 of 10 GA/GALS ]
Beginning LAMARCKIAN GENETIC ALGORITHM (LGA), with a maximum of 2500000 energy evaluations.

Final-Value: -14.982


	FINAL GENETIC ALGORITHM DOCKED STATE
	_______________________________________________


Detailed state:  trans 18.254 129.916 -5.091 quatxyzw 0.771577 0.285967 0.458043 -0.336286 center 260.046 76.382 -485.586 ntor 5 179.8490 -31.0352 -119.7078 20.0384 164.1156
State:	 18.254 129.916  -5.091   0.819  0.304  0.486 -140.698    179.85  -31.04 -119.71   20.04  164.12

DOCKED: MODEL        2
DOCKED: USER    Run = 2
DOCKED: USER    DPF = ligand_protein_tz.dpf
DOCKED: USER  
DOCKED: USER    Estimated Free Energy of Binding    =  -11.35 kcal/mol  [=(1)+(2)+(3)-(4)]
DOCKED: USER    Estimated Inhibition Constant, Ki   =    4.78 nM (nanomolar)  [Temperature = 298.15 K]
DOCKED: USER    
DOCKED: USER    (1) Final Intermolecular Energy     =  -12.84 kcal/mol
DOCKED: USER        vdW + Hbond + desolv Energy     =  -12.28 kcal/mol
DOCKED: USER        Electrostatic Energy            =   -0.57 kcal/mol
DOCKED: USER    (2) Final Total Internal Energy     =   -2.14 kcal/mol
DOCKED: USER    (3) Torsional Free Energy           =   +1.49 kcal/mol
DOCKED: USER    (4) Unbound System's Energy  [=(2)] =   -2.14 kcal/mol
DOCKED: USER    
DOCKED: USER    
DOCKED: USER    NEWDPF move ligand.pdbqt
DOCKED: USER    NEWDPF about 260.046000 76.382000 -485.586000
DOCKED: USER    NEWDPF tran0 18.254299 129.916259 -5.091426
DOCKED: USER    NEWDPF quaternion0 0.771577 0.285967 0.458043 -0.336286
DOCKED: USER    NEWDPF axisangle0 0.819293 0.303652 0.486369 -140.698428
DOCKED: USER    NEWDPF quat0 0.819293 0.303652 0.486369 -140.698428
DOCKED: USER    NEWDPF dihe0 179.85 -31.04 -119.71 20.04 164.12 
DOCKED: USER  keepresnum = 1 
DOCKED: USER  
DOCKED: REMARK  5 active torsions:
DOCKED: REMARK  status: ('A' for Active; 'I' for Inactive)
DOCKED: REMARK    1  A    between atoms: C_15  and  N_1 
DOCKED: REMARK    2  A    between atoms: N_4  and  C_8 
DOCKED: REMARK    3  A    between atoms: C_16  and  C_15 
DOCKED: REMARK    4  A    between atoms: N_21  and  C_22 
DOCKED: REMARK    5  A    between atoms: C_23  and  C_22 
DOCKED: USER                              x       y       z     vdW  Elec       q    Type
DOCKED: USER                           _______ _______ _______ _____ _____    ______ ____
DOCKED: ROOT
DOCKED: ATOM      1  C   LIG d   1      19.485 132.705  -1.610 -0.32 +0.03    -0.040 A 
DOCKED: ATOM      2  C   LIG d   1      19.062 131.593  -0.869 -0.44 -0.01    +0.010 A 
DOCKED: ATOM      3  C   LIG d   1      19.032 131.633   0.529 -0.47 -0.02    +0.023 A 
DOCKED: ATOM      4  C   LIG d   1      19.431 132.801   1.221 -0.35 -0.04    +0.044 A 
DOCKED: ATOM      5  C   LIG d   1      19.856 133.906   0.507 -0.20 -0.02    +0.023 A 
DOCKED: ATOM      6  C   LIG d   1      19.887 133.864  -0.907 -0.20 -0.01    +0.010 A 
DOCKED: ATOM      7  C   LIG d   1      19.389 132.838   2.548 -0.46 -0.11    +0.099 C 
DOCKED: ATOM      8  N   LIG d   1      19.352 132.875   3.719 -4.17 +0.23    -0.191 NA
DOCKED: ENDROOT
DOCKED: BRANCH   1   9
DOCKED: ATOM      9  C   LIG d   1      19.514 132.678  -3.144 -0.35 -0.11    +0.168 C 
DOCKED: BRANCH   9  10
DOCKED: ATOM     10  N   LIG d   1      20.451 133.653  -3.750 -0.17 +0.22    -0.340 N 
DOCKED: ATOM     11  C   LIG d   1      21.762 133.534  -3.660 -0.35 -0.14    +0.183 A 
DOCKED: ATOM     12  N   LIG d   1      22.347 134.602  -4.330 -0.22 +0.26    -0.360 N 
DOCKED: ATOM     13  C   LIG d   1      21.281 135.409  -4.851 -0.36 -0.07    +0.115 A 
DOCKED: ATOM     14  HN  LIG d   1      23.346 134.779  -4.433 -0.47 -0.14    +0.166 HD
DOCKED: ATOM     15  C   LIG d   1      20.154 134.778  -4.465 -0.21 -0.03    +0.056 A 
DOCKED: BRANCH  15  16
DOCKED: ATOM     16  C   LIG d   1      18.718 135.213  -4.748 -0.10 -0.17    +0.331 C 
DOCKED: BRANCH  16  17
DOCKED: ATOM     17  N   LIG d   1      18.107 135.659  -3.495 -0.08 -0.06    +0.104 N 
DOCKED: ATOM     18  C   LIG d   1      17.023 134.708  -3.216 -0.05 -0.20    +0.375 C 
DOCKED: ATOM     19  C   LIG d   1      16.516 134.885  -1.753 -0.18 -0.15    +0.253 C 
DOCKED: ATOM     20  O   LIG d   1      15.883 133.995  -1.219 -0.26 +0.15    -0.271 OA
DOCKED: ATOM     21  N   LIG d   1      16.807 136.073  -1.074 -0.07 +0.20    -0.315 N 
DOCKED: ATOM     22  C   LIG d   1      17.576 137.100  -1.780 -0.07 -0.10    +0.162 C 
DOCKED: ATOM     23  C   LIG d   1      17.713 137.059  -3.311 -0.04 -0.17    +0.293 C 
DOCKED: BRANCH  21  24
DOCKED: ATOM     24  C   LIG d   1      16.419 136.338   0.221 -0.25 -0.03    +0.038 A 
DOCKED: ATOM     25  C   LIG d   1      15.268 137.103   0.330 -0.32 -0.04    +0.053 A 
DOCKED: ATOM     26  C   LIG d   1      14.735 137.453   1.571 -0.40 -0.04    +0.036 A 
DOCKED: ATOM     27 CL   LIG d   1      13.293 138.398   1.584 -0.78 +0.08    -0.084 Cl
DOCKED: ATOM     28  C   LIG d   1      15.381 137.025   2.750 -0.36 -0.04    +0.024 A 
DOCKED: ATOM     29  C   LIG d   1      16.562 136.243   2.672 -0.31 -0.00    +0.004 A 
DOCKED: ATOM     30  C   LIG d   1      17.091 135.886   1.410 -0.27 -0.02    +0.030 A 
DOCKED: ENDBRANCH  21  24
DOCKED: ENDBRANCH  16  17
DOCKED: ENDBRANCH  15  16
DOCKED: ENDBRANCH   9  10
DOCKED: ENDBRANCH   1   9
DOCKED: TORSDOF 5
DOCKED: TER
DOCKED: ENDMDL
________________________________________________________________________________


	BEGINNING GENETIC ALGORITHM DOCKING 3 of 10
Run: 3 Seed: 1737928506 2136256069 [ Run 3 of 10 GA/GALS ]
Beginning LAMARCKIAN GENETIC ALGORITHM (LGA), with a maximum of 2500000 energy evaluations.

Final-Value: -14.754


	FINAL GENETIC ALGORITHM DOCKED STATE
	_______________________________________________


Detailed state:  trans 16.824 133.826 -5.484 quatxyzw 0.835841 -0.212984 0.229659 -0.450849 center 260.046 76.382 -485.586 ntor 5 -170.5430 27.6136 108.7123 -109.5739 -78.0459
State:	 16.824 133.826  -5.484   0.936 -0.239  0.257 -126.404   -170.54   27.61  108.71 -109.57  -78.05

DOCKED: MODEL        3
DOCKED: USER    Run = 3
DOCKED: USER    DPF = ligand_protein_tz.dpf
DOCKED: USER  
DOCKED: USER    Estimated Free Energy of Binding    =  -11.26 kcal/mol  [=(1)+(2)+(3)-(4)]
DOCKED: USER    Estimated Inhibition Constant, Ki   =    5.62 nM (nanomolar)  [Temperature = 298.15 K]
DOCKED: USER    
DOCKED: USER    (1) Final Intermolecular Energy     =  -12.75 kcal/mol
DOCKED: USER        vdW + Hbond + desolv Energy     =  -12.24 kcal/mol
DOCKED: USER        Electrostatic Energy            =   -0.51 kcal/mol
DOCKED: USER    (2) Final Total Internal Energy     =   -2.01 kcal/mol
DOCKED: USER    (3) Torsional Free Energy           =   +1.49 kcal/mol
DOCKED: USER    (4) Unbound System's Energy  [=(2)] =   -2.01 kcal/mol
DOCKED: USER    
DOCKED: USER    
DOCKED: USER    NEWDPF move ligand.pdbqt
DOCKED: USER    NEWDPF about 260.046000 76.382000 -485.586000
DOCKED: USER    NEWDPF tran0 16.823884 133.826313 -5.484242
DOCKED: USER    NEWDPF quaternion0 0.835841 -0.212984 0.229659 -0.450849
DOCKED: USER    NEWDPF axisangle0 0.936411 -0.238611 0.257292 -126.403677
DOCKED: USER    NEWDPF quat0 0.936411 -0.238611 0.257292 -126.403677
DOCKED: USER    NEWDPF dihe0 -170.54 27.61 108.71 -109.57 -78.05 
DOCKED: USER  keepresnum = 1 
DOCKED: USER  
DOCKED: REMARK  5 active torsions:
DOCKED: REMARK  status: ('A' for Active; 'I' for Inactive)
DOCKED: REMARK    1  A    between atoms: C_15  and  N_1 
DOCKED: REMARK    2  A    between atoms: N_4  and  C_8 
DOCKED: REMARK    3  A    between atoms: C_16  and  C_15 
DOCKED: REMARK    4  A    between atoms: N_21  and  C_22 
DOCKED: REMARK    5  A    between atoms: C_23  and  C_22 
DOCKED: USER                              x       y       z     vdW  Elec       q    Type
DOCKED: USER                           _______ _______ _______ _____ _____    ______ ____
DOCKED: ROOT
DOCKED: ATOM      1  C   LIG d   1      19.529 133.296  -1.768 -0.25 +0.03    -0.040 A 
DOCKED: ATOM      2  C   LIG d   1      18.279 133.090  -1.167 -0.30 -0.01    +0.010 A 
DOCKED: ATOM      3  C   LIG d   1      18.170 132.899   0.214 -0.31 -0.02    +0.023 A 
DOCKED: ATOM      4  C   LIG d   1      19.325 132.909   1.032 -0.33 -0.04    +0.044 A 
DOCKED: ATOM      5  C   LIG d   1      20.567 133.107   0.457 -0.31 -0.03    +0.023 A 
DOCKED: ATOM      6  C   LIG d   1      20.676 133.299  -0.940 -0.31 -0.01    +0.010 A 
DOCKED: ATOM      7  C   LIG d   1      19.215 132.740   2.345 -0.47 -0.11    +0.099 C 
DOCKED: ATOM      8  N   LIG d   1      19.122 132.592   3.504 -4.22 +0.22    -0.191 NA
DOCKED: ENDROOT
DOCKED: BRANCH   1   9
DOCKED: ATOM      9  C   LIG d   1      19.661 133.517  -3.281 -0.27 -0.11    +0.168 C 
DOCKED: BRANCH   9  10
DOCKED: ATOM     10  N   LIG d   1      18.753 132.676  -4.097 -0.19 +0.17    -0.340 N 
DOCKED: ATOM     11  C   LIG d   1      18.785 131.357  -4.071 -0.38 -0.09    +0.183 A 
DOCKED: ATOM     12  N   LIG d   1      17.812 130.878  -4.940 -0.31 +0.10    -0.360 N 
DOCKED: ATOM     13  C   LIG d   1      17.164 132.019  -5.520 -0.40 -0.02    +0.115 A 
DOCKED: ATOM     14  HN  LIG d   1      17.599 129.898  -5.130 +0.12 -0.03    +0.166 HD
DOCKED: ATOM     15  C   LIG d   1      17.781 133.081  -4.966 -0.31 -0.02    +0.056 A 
DOCKED: BRANCH  15  16
DOCKED: ATOM     16  C   LIG d   1      17.486 134.554  -5.236 -0.11 -0.15    +0.331 C 
DOCKED: BRANCH  16  17
DOCKED: ATOM     17  N   LIG d   1      17.052 135.183  -3.988 -0.11 -0.05    +0.104 N 
DOCKED: ATOM     18  C   LIG d   1      15.895 134.404  -3.527 -0.09 -0.19    +0.375 C 
DOCKED: ATOM     19  C   LIG d   1      15.550 134.772  -2.053 -0.24 -0.14    +0.253 C 
DOCKED: ATOM     20  O   LIG d   1      14.870 134.019  -1.383 -0.24 +0.14    -0.271 OA
DOCKED: ATOM     21  N   LIG d   1      16.041 135.970  -1.521 -0.10 +0.19    -0.315 N 
DOCKED: ATOM     22  C   LIG d   1      16.855 136.826  -2.387 -0.10 -0.10    +0.162 C 
DOCKED: ATOM     23  C   LIG d   1      16.842 136.632  -3.913 -0.06 -0.16    +0.293 C 
DOCKED: BRANCH  21  24
DOCKED: ATOM     24  C   LIG d   1      15.809 136.395  -0.232 -0.29 -0.03    +0.038 A 
DOCKED: ATOM     25  C   LIG d   1      14.648 137.136  -0.073 -0.38 -0.04    +0.053 A 
DOCKED: ATOM     26  C   LIG d   1      14.263 137.635   1.172 -0.41 -0.03    +0.036 A 
DOCKED: ATOM     27 CL   LIG d   1      12.793 138.533   1.253 -0.83 +0.07    -0.084 Cl
DOCKED: ATOM     28  C   LIG d   1      15.071 137.387   2.301 -0.40 -0.03    +0.024 A 
DOCKED: ATOM     29  C   LIG d   1      16.266 136.634   2.170 -0.37 -0.00    +0.004 A 
DOCKED: ATOM     30  C   LIG d   1      16.646 136.126   0.906 -0.27 -0.02    +0.030 A 
DOCKED: ENDBRANCH  21  24
DOCKED: ENDBRANCH  16  17
DOCKED: ENDBRANCH  15  16
DOCKED: ENDBRANCH   9  10
DOCKED: ENDBRANCH   1   9
DOCKED: TORSDOF 5
DOCKED: TER
DOCKED: ENDMDL
________________________________________________________________________________


	BEGINNING GENETIC ALGORITHM DOCKING 4 of 10
Run: 4 Seed: 735815357 340989999 [ Run 4 of 10 GA/GALS ]
Beginning LAMARCKIAN GENETIC ALGORITHM (LGA), with a maximum of 2500000 energy evaluations.

Final-Value: -11.782


	FINAL GENETIC ALGORITHM DOCKED STATE
	_______________________________________________


Detailed state:  trans 14.884 134.977 -0.747 quatxyzw -0.188144 0.608032 -0.179320 -0.750162 center 260.046 76.382 -485.586 ntor 5 172.4483 -25.1400 -176.3982 -85.6464 59.3434
State:	 14.884 134.977  -0.747  -0.285  0.920 -0.271 -82.791    172.45  -25.14 -176.40  -85.65   59.34

DOCKED: MODEL        4
DOCKED: USER    Run = 4
DOCKED: USER    DPF = ligand_protein_tz.dpf
DOCKED: USER  
DOCKED: USER    Estimated Free Energy of Binding    =   -9.34 kcal/mol  [=(1)+(2)+(3)-(4)]
DOCKED: USER    Estimated Inhibition Constant, Ki   =  142.28 nM (nanomolar)  [Temperature = 298.15 K]
DOCKED: USER    
DOCKED: USER    (1) Final Intermolecular Energy     =  -10.83 kcal/mol
DOCKED: USER        vdW + Hbond + desolv Energy     =  -10.22 kcal/mol
DOCKED: USER        Electrostatic Energy            =   -0.61 kcal/mol
DOCKED: USER    (2) Final Total Internal Energy     =   -0.95 kcal/mol
DOCKED: USER    (3) Torsional Free Energy           =   +1.49 kcal/mol
DOCKED: USER    (4) Unbound System's Energy  [=(2)] =   -0.95 kcal/mol
DOCKED: USER    
DOCKED: USER    
DOCKED: USER    NEWDPF move ligand.pdbqt
DOCKED: USER    NEWDPF about 260.046000 76.382000 -485.586000
DOCKED: USER    NEWDPF tran0 14.884242 134.977366 -0.747120
DOCKED: USER    NEWDPF quaternion0 -0.188144 0.608032 -0.179320 -0.750162
DOCKED: USER    NEWDPF axisangle0 -0.284527 0.919513 -0.271182 -82.791125
DOCKED: USER    NEWDPF quat0 -0.284527 0.919513 -0.271182 -82.791125
DOCKED: USER    NEWDPF dihe0 172.45 -25.14 -176.40 -85.65 59.34 
DOCKED: USER  keepresnum = 1 
DOCKED: USER  
DOCKED: REMARK  5 active torsions:
DOCKED: REMARK  status: ('A' for Active; 'I' for Inactive)
DOCKED: REMARK    1  A    between atoms: C_15  and  N_1 
DOCKED: REMARK    2  A    between atoms: N_4  and  C_8 
DOCKED: REMARK    3  A    between atoms: C_16  and  C_15 
DOCKED: REMARK    4  A    between atoms: N_21  and  C_22 
DOCKED: REMARK    5  A    between atoms: C_23  and  C_22 
DOCKED: USER                              x       y       z     vdW  Elec       q    Type
DOCKED: USER                           _______ _______ _______ _____ _____    ______ ____
DOCKED: ROOT
DOCKED: ATOM      1  C   LIG d   1      14.968 133.757  -5.210 -0.33 +0.02    -0.040 A 
DOCKED: ATOM      2  C   LIG d   1      14.544 135.086  -5.348 -0.35 -0.01    +0.010 A 
DOCKED: ATOM      3  C   LIG d   1      14.209 135.604  -6.603 -0.33 -0.01    +0.023 A 
DOCKED: ATOM      4  C   LIG d   1      14.296 134.794  -7.760 -0.40 -0.02    +0.044 A 
DOCKED: ATOM      5  C   LIG d   1      14.718 133.481  -7.644 -0.35 -0.01    +0.023 A 
DOCKED: ATOM      6  C   LIG d   1      15.056 132.958  -6.374 -0.42 -0.00    +0.010 A 
DOCKED: ATOM      7  C   LIG d   1      13.965 135.287  -8.948 -0.48 -0.06    +0.099 C 
DOCKED: ATOM      8  N   LIG d   1      13.674 135.719  -9.998 -0.46 +0.11    -0.191 NA
DOCKED: ENDROOT
DOCKED: BRANCH   1   9
DOCKED: ATOM      9  C   LIG d   1      15.329 133.173  -3.837 -0.30 -0.08    +0.168 C 
DOCKED: BRANCH   9  10
DOCKED: ATOM     10  N   LIG d   1      14.243 132.379  -3.214 -0.27 +0.16    -0.340 N 
DOCKED: ATOM     11  C   LIG d   1      12.968 132.697  -3.331 -0.29 -0.09    +0.183 A 
DOCKED: ATOM     12  N   LIG d   1      12.216 131.757  -2.637 -0.30 +0.21    -0.360 N 
DOCKED: ATOM     13  C   LIG d   1      13.136 130.815  -2.067 -0.57 -0.06    +0.115 A 
DOCKED: ATOM     14  HN  LIG d   1      11.199 131.740  -2.549 -0.13 -0.12    +0.166 HD
DOCKED: ATOM     15  C   LIG d   1      14.352 131.248  -2.455 -0.58 -0.03    +0.056 A 
DOCKED: BRANCH  15  16
DOCKED: ATOM     16  C   LIG d   1      15.700 130.614  -2.120 -0.31 -0.18    +0.331 C 
DOCKED: BRANCH  16  17
DOCKED: ATOM     17  N   LIG d   1      16.762 131.561  -2.461 -0.42 -0.06    +0.104 N 
DOCKED: ATOM     18  C   LIG d   1      17.436 131.001  -3.640 -0.09 -0.17    +0.375 C 
DOCKED: ATOM     19  C   LIG d   1      18.365 132.071  -4.288 -0.38 -0.11    +0.253 C 
DOCKED: ATOM     20  O   LIG d   1      18.738 131.935  -5.438 -0.20 +0.08    -0.271 OA
DOCKED: ATOM     21  N   LIG d   1      18.751 133.182  -3.530 -0.13 +0.18    -0.315 N 
DOCKED: ATOM     22  C   LIG d   1      18.262 133.280  -2.153 -0.22 -0.10    +0.162 C 
DOCKED: ATOM     23  C   LIG d   1      17.692 132.045  -1.436 -0.30 -0.20    +0.293 C 
DOCKED: BRANCH  21  24
DOCKED: ATOM     24  C   LIG d   1      19.561 134.193  -3.998 -0.25 -0.02    +0.038 A 
DOCKED: ATOM     25  C   LIG d   1      20.859 134.161  -3.512 -0.33 -0.04    +0.053 A 
DOCKED: ATOM     26  C   LIG d   1      21.808 135.109  -3.894 -0.42 -0.02    +0.036 A 
DOCKED: ATOM     27 CL   LIG d   1      23.395 134.962  -3.235 -0.64 +0.06    -0.084 Cl
DOCKED: ATOM     28  C   LIG d   1      21.445 136.133  -4.794 -0.44 -0.02    +0.024 A 
DOCKED: ATOM     29  C   LIG d   1      20.124 136.194  -5.307 -0.33 -0.00    +0.004 A 
DOCKED: ATOM     30  C   LIG d   1      19.170 135.225  -4.920 -0.20 -0.02    +0.030 A 
DOCKED: ENDBRANCH  21  24
DOCKED: ENDBRANCH  16  17
DOCKED: ENDBRANCH  15  16
DOCKED: ENDBRANCH   9  10
DOCKED: ENDBRANCH   1   9
DOCKED: TORSDOF 5
DOCKED: TER
DOCKED: ENDMDL
________________________________________________________________________________


	BEGINNING GENETIC ALGORITHM DOCKING 5 of 10
Run: 5 Seed: 494047848 266511441 [ Run 5 of 10 GA/GALS ]
Beginning LAMARCKIAN GENETIC ALGORITHM (LGA), with a maximum of 2500000 energy evaluations.

Final-Value: -14.729


	FINAL GENETIC ALGORITHM DOCKED STATE
	_______________________________________________


Detailed state:  trans 17.727 135.620 -5.210 quatxyzw -0.744053 0.464026 -0.039241 0.479088 center 260.046 76.382 -485.586 ntor 5 -170.3289 31.6108 103.9437 -111.8997 -110.8756
State:	 17.727 135.620  -5.210  -0.848  0.529 -0.045 122.748   -170.33   31.61  103.94 -111.90 -110.88

DOCKED: MODEL        5
DOCKED: USER    Run = 5
DOCKED: USER    DPF = ligand_protein_tz.dpf
DOCKED: USER  
DOCKED: USER    Estimated Free Energy of Binding    =  -11.33 kcal/mol  [=(1)+(2)+(3)-(4)]
DOCKED: USER    Estimated Inhibition Constant, Ki   =    4.93 nM (nanomolar)  [Temperature = 298.15 K]
DOCKED: USER    
DOCKED: USER    (1) Final Intermolecular Energy     =  -12.82 kcal/mol
DOCKED: USER        vdW + Hbond + desolv Energy     =  -12.31 kcal/mol
DOCKED: USER        Electrostatic Energy            =   -0.52 kcal/mol
DOCKED: USER    (2) Final Total Internal Energy     =   -1.91 kcal/mol
DOCKED: USER    (3) Torsional Free Energy           =   +1.49 kcal/mol
DOCKED: USER    (4) Unbound System's Energy  [=(2)] =   -1.91 kcal/mol
DOCKED: USER    
DOCKED: USER    
DOCKED: USER    NEWDPF move ligand.pdbqt
DOCKED: USER    NEWDPF about 260.046000 76.382000 -485.586000
DOCKED: USER    NEWDPF tran0 17.727000 135.619503 -5.210219
DOCKED: USER    NEWDPF quaternion0 -0.744053 0.464026 -0.039241 0.479088
DOCKED: USER    NEWDPF axisangle0 -0.847666 0.528644 -0.044706 122.748270
DOCKED: USER    NEWDPF quat0 -0.847666 0.528644 -0.044706 122.748270
DOCKED: USER    NEWDPF dihe0 -170.33 31.61 103.94 -111.90 -110.88 
DOCKED: USER  keepresnum = 1 
DOCKED: USER  
DOCKED: REMARK  5 active torsions:
DOCKED: REMARK  status: ('A' for Active; 'I' for Inactive)
DOCKED: REMARK    1  A    between atoms: C_15  and  N_1 
DOCKED: REMARK    2  A    between atoms: N_4  and  C_8 
DOCKED: REMARK    3  A    between atoms: C_16  and  C_15 
DOCKED: REMARK    4  A    between atoms: N_21  and  C_22 
DOCKED: REMARK    5  A    between atoms: C_23  and  C_22 
DOCKED: USER                              x       y       z     vdW  Elec       q    Type
DOCKED: USER                           _______ _______ _______ _____ _____    ______ ____
DOCKED: ROOT
DOCKED: ATOM      1  C   LIG d   1      19.681 133.252  -1.748 -0.26 +0.03    -0.040 A 
DOCKED: ATOM      2  C   LIG d   1      18.589 133.797  -1.059 -0.21 -0.01    +0.010 A 
DOCKED: ATOM      3  C   LIG d   1      18.437 133.599   0.317 -0.28 -0.02    +0.023 A 
DOCKED: ATOM      4  C   LIG d   1      19.387 132.838   1.040 -0.33 -0.04    +0.044 A 
DOCKED: ATOM      5  C   LIG d   1      20.469 132.289   0.376 -0.42 -0.03    +0.023 A 
DOCKED: ATOM      6  C   LIG d   1      20.621 132.490  -1.015 -0.39 -0.01    +0.010 A 
DOCKED: ATOM      7  C   LIG d   1      19.246 132.663   2.349 -0.48 -0.11    +0.099 C 
DOCKED: ATOM      8  N   LIG d   1      19.125 132.506   3.504 -4.24 +0.22    -0.191 NA
DOCKED: ENDROOT
DOCKED: BRANCH   1   9
DOCKED: ATOM      9  C   LIG d   1      19.864 133.471  -3.256 -0.29 -0.11    +0.168 C 
DOCKED: BRANCH   9  10
DOCKED: ATOM     10  N   LIG d   1      18.900 132.723  -4.098 -0.19 +0.18    -0.340 N 
DOCKED: ATOM     11  C   LIG d   1      18.841 131.406  -4.117 -0.38 -0.09    +0.183 A 
DOCKED: ATOM     12  N   LIG d   1      17.838 131.024  -4.999 -0.34 +0.09    -0.360 N 
DOCKED: ATOM     13  C   LIG d   1      17.269 132.226  -5.539 -0.38 -0.02    +0.115 A 
DOCKED: ATOM     14  HN  LIG d   1      17.558 130.069  -5.222 +0.11 -0.02    +0.166 HD
DOCKED: ATOM     15  C   LIG d   1      17.958 133.224  -4.950 -0.29 -0.02    +0.056 A 
DOCKED: BRANCH  15  16
DOCKED: ATOM     16  C   LIG d   1      17.765 134.723  -5.169 -0.11 -0.15    +0.331 C 
DOCKED: BRANCH  16  17
DOCKED: ATOM     17  N   LIG d   1      17.265 135.318  -3.929 -0.10 -0.06    +0.104 N 
DOCKED: ATOM     18  C   LIG d   1      16.090 134.523  -3.547 -0.08 -0.19    +0.375 C 
DOCKED: ATOM     19  C   LIG d   1      15.670 134.853  -2.083 -0.23 -0.14    +0.253 C 
DOCKED: ATOM     20  O   LIG d   1      14.960 134.081  -1.468 -0.28 +0.14    -0.271 OA
DOCKED: ATOM     21  N   LIG d   1      16.128 136.038  -1.497 -0.09 +0.19    -0.315 N 
DOCKED: ATOM     22  C   LIG d   1      16.981 136.919  -2.299 -0.09 -0.10    +0.162 C 
DOCKED: ATOM     23  C   LIG d   1      17.046 136.764  -3.828 -0.06 -0.17    +0.293 C 
DOCKED: BRANCH  21  24
DOCKED: ATOM     24  C   LIG d   1      15.829 136.430  -0.211 -0.28 -0.03    +0.038 A 
DOCKED: ATOM     25  C   LIG d   1      14.656 137.159  -0.091 -0.38 -0.04    +0.053 A 
DOCKED: ATOM     26  C   LIG d   1      14.206 137.624   1.145 -0.40 -0.03    +0.036 A 
DOCKED: ATOM     27 CL   LIG d   1      12.726 138.510   1.175 -0.80 +0.06    -0.084 Cl
DOCKED: ATOM     28  C   LIG d   1      14.960 137.354   2.307 -0.39 -0.03    +0.024 A 
DOCKED: ATOM     29  C   LIG d   1      16.165 136.612   2.216 -0.37 -0.00    +0.004 A 
DOCKED: ATOM     30  C   LIG d   1      16.611 136.138   0.960 -0.28 -0.02    +0.030 A 
DOCKED: ENDBRANCH  21  24
DOCKED: ENDBRANCH  16  17
DOCKED: ENDBRANCH  15  16
DOCKED: ENDBRANCH   9  10
DOCKED: ENDBRANCH   1   9
DOCKED: TORSDOF 5
DOCKED: TER
DOCKED: ENDMDL
________________________________________________________________________________


	BEGINNING GENETIC ALGORITHM DOCKING 6 of 10
Run: 6 Seed: 2078991980 1817901629 [ Run 6 of 10 GA/GALS ]
Beginning LAMARCKIAN GENETIC ALGORITHM (LGA), with a maximum of 2500000 energy evaluations.

Final-Value: -13.373


	FINAL GENETIC ALGORITHM DOCKED STATE
	_______________________________________________


Detailed state:  trans 23.455 130.149 -2.465 quatxyzw 0.068033 -0.040270 -0.891466 0.446137 center 260.046 76.382 -485.586 ntor 5 -51.3421 7.0785 109.4926 -134.3322 166.9151
State:	 23.455 130.149  -2.465   0.076 -0.045 -0.996 127.008    -51.34    7.08  109.49 -134.33  166.92

DOCKED: MODEL        6
DOCKED: USER    Run = 6
DOCKED: USER    DPF = ligand_protein_tz.dpf
DOCKED: USER  
DOCKED: USER    Estimated Free Energy of Binding    =   -9.34 kcal/mol  [=(1)+(2)+(3)-(4)]
DOCKED: USER    Estimated Inhibition Constant, Ki   =  141.36 nM (nanomolar)  [Temperature = 298.15 K]
DOCKED: USER    
DOCKED: USER    (1) Final Intermolecular Energy     =  -10.84 kcal/mol
DOCKED: USER        vdW + Hbond + desolv Energy     =   -9.87 kcal/mol
DOCKED: USER        Electrostatic Energy            =   -0.97 kcal/mol
DOCKED: USER    (2) Final Total Internal Energy     =   -2.54 kcal/mol
DOCKED: USER    (3) Torsional Free Energy           =   +1.49 kcal/mol
DOCKED: USER    (4) Unbound System's Energy  [=(2)] =   -2.54 kcal/mol
DOCKED: USER    
DOCKED: USER    
DOCKED: USER    NEWDPF move ligand.pdbqt
DOCKED: USER    NEWDPF about 260.046000 76.382000 -485.586000
DOCKED: USER    NEWDPF tran0 23.454832 130.149245 -2.465107
DOCKED: USER    NEWDPF quaternion0 0.068033 -0.040270 -0.891466 0.446137
DOCKED: USER    NEWDPF axisangle0 0.076017 -0.044996 -0.996091 127.007822
DOCKED: USER    NEWDPF quat0 0.076017 -0.044996 -0.996091 127.007822
DOCKED: USER    NEWDPF dihe0 -51.34 7.08 109.49 -134.33 166.92 
DOCKED: USER  keepresnum = 1 
DOCKED: USER  
DOCKED: REMARK  5 active torsions:
DOCKED: REMARK  status: ('A' for Active; 'I' for Inactive)
DOCKED: REMARK    1  A    between atoms: C_15  and  N_1 
DOCKED: REMARK    2  A    between atoms: N_4  and  C_8 
DOCKED: REMARK    3  A    between atoms: C_16  and  C_15 
DOCKED: REMARK    4  A    between atoms: N_21  and  C_22 
DOCKED: REMARK    5  A    between atoms: C_23  and  C_22 
DOCKED: USER                              x       y       z     vdW  Elec       q    Type
DOCKED: USER                           _______ _______ _______ _____ _____    ______ ____
DOCKED: ROOT
DOCKED: ATOM      1  C   LIG d   1      19.977 132.802  -3.975 -0.37 +0.02    -0.040 A 
DOCKED: ATOM      2  C   LIG d   1      19.418 131.539  -4.216 -0.34 -0.01    +0.010 A 
DOCKED: ATOM      3  C   LIG d   1      18.175 131.414  -4.846 -0.56 -0.01    +0.023 A 
DOCKED: ATOM      4  C   LIG d   1      17.458 132.564  -5.251 -0.39 -0.01    +0.044 A 
DOCKED: ATOM      5  C   LIG d   1      17.992 133.819  -5.018 -0.25 -0.01    +0.023 A 
DOCKED: ATOM      6  C   LIG d   1      19.248 133.944  -4.380 -0.23 -0.01    +0.010 A 
DOCKED: ATOM      7  C   LIG d   1      16.284 132.440  -5.860 -0.40 -0.02    +0.099 C 
DOCKED: ATOM      8  N   LIG d   1      15.248 132.334  -6.398 -0.24 +0.04    -0.191 NA
DOCKED: ENDROOT
DOCKED: BRANCH   1   9
DOCKED: ATOM      9  C   LIG d   1      21.344 132.953  -3.294 -0.36 -0.13    +0.168 C 
DOCKED: BRANCH   9  10
DOCKED: ATOM     10  N   LIG d   1      21.525 134.239  -2.580 -0.14 +0.28    -0.340 N 
DOCKED: ATOM     11  C   LIG d   1      21.930 135.340  -3.183 -0.28 -0.13    +0.183 A 
DOCKED: ATOM     12  N   LIG d   1      21.993 136.359  -2.240 -0.12 +0.26    -0.360 N 
DOCKED: ATOM     13  C   LIG d   1      21.592 135.797  -0.982 -0.15 -0.10    +0.115 A 
DOCKED: ATOM     14  HN  LIG d   1      22.272 137.325  -2.410 -0.10 -0.12    +0.166 HD
DOCKED: ATOM     15  C   LIG d   1      21.319 134.506  -1.256 -0.22 -0.05    +0.056 A 
DOCKED: BRANCH  15  16
DOCKED: ATOM     16  C   LIG d   1      20.851 133.439  -0.269 -0.18 -0.37    +0.331 C 
DOCKED: BRANCH  16  17
DOCKED: ATOM     17  N   LIG d   1      19.540 132.947  -0.696 -0.23 -0.09    +0.104 N 
DOCKED: ATOM     18  C   LIG d   1      18.575 133.982  -0.302 -0.11 -0.28    +0.375 C 
DOCKED: ATOM     19  C   LIG d   1      17.200 133.725  -0.990 -0.23 -0.16    +0.253 C 
DOCKED: ATOM     20  O   LIG d   1      16.388 134.626  -1.075 -0.21 +0.16    -0.271 OA
DOCKED: ATOM     21  N   LIG d   1      16.928 132.454  -1.505 -0.21 +0.19    -0.315 N 
DOCKED: ATOM     22  C   LIG d   1      17.955 131.419  -1.366 -0.31 -0.11    +0.162 C 
DOCKED: ATOM     23  C   LIG d   1      19.104 131.589  -0.359 -0.32 -0.26    +0.293 C 
DOCKED: BRANCH  21  24
DOCKED: ATOM     24  C   LIG d   1      15.753 132.112  -2.138 -0.41 -0.02    +0.038 A 
DOCKED: ATOM     25  C   LIG d   1      15.151 133.152  -2.829 -0.38 -0.03    +0.053 A 
DOCKED: ATOM     26  C   LIG d   1      13.959 132.971  -3.533 -0.54 -0.02    +0.036 A 
DOCKED: ATOM     27 CL   LIG d   1      13.308 134.334  -4.366 -0.65 +0.04    -0.084 Cl
DOCKED: ATOM     28  C   LIG d   1      13.343 131.703  -3.542 -0.66 -0.01    +0.024 A 
DOCKED: ATOM     29  C   LIG d   1      13.934 130.619  -2.842 -0.74 -0.00    +0.004 A 
DOCKED: ATOM     30  C   LIG d   1      15.145 130.809  -2.138 -0.54 -0.02    +0.030 A 
DOCKED: ENDBRANCH  21  24
DOCKED: ENDBRANCH  16  17
DOCKED: ENDBRANCH  15  16
DOCKED: ENDBRANCH   9  10
DOCKED: ENDBRANCH   1   9
DOCKED: TORSDOF 5
DOCKED: TER
DOCKED: ENDMDL
________________________________________________________________________________


	BEGINNING GENETIC ALGORITHM DOCKING 7 of 10
Run: 7 Seed: 1435643947 1353080028 [ Run 7 of 10 GA/GALS ]
Beginning LAMARCKIAN GENETIC ALGORITHM (LGA), with a maximum of 2500000 energy evaluations.

Final-Value: -12.804


	FINAL GENETIC ALGORITHM DOCKED STATE
	_______________________________________________


Detailed state:  trans 16.923 132.073 -5.611 quatxyzw -0.799467 -0.330323 -0.471835 0.170618 center 260.046 76.382 -485.586 ntor 5 127.2780 28.6453 89.2337 -164.6158 -174.8582
State:	 16.923 132.073  -5.611  -0.811 -0.335 -0.479 160.352    127.28   28.65   89.23 -164.62 -174.86

DOCKED: MODEL        7
DOCKED: USER    Run = 7
DOCKED: USER    DPF = ligand_protein_tz.dpf
DOCKED: USER  
DOCKED: USER    Estimated Free Energy of Binding    =   -8.83 kcal/mol  [=(1)+(2)+(3)-(4)]
DOCKED: USER    Estimated Inhibition Constant, Ki   =  334.77 nM (nanomolar)  [Temperature = 298.15 K]
DOCKED: USER    
DOCKED: USER    (1) Final Intermolecular Energy     =  -10.33 kcal/mol
DOCKED: USER        vdW + Hbond + desolv Energy     =   -9.45 kcal/mol
DOCKED: USER        Electrostatic Energy            =   -0.88 kcal/mol
DOCKED: USER    (2) Final Total Internal Energy     =   -2.48 kcal/mol
DOCKED: USER    (3) Torsional Free Energy           =   +1.49 kcal/mol
DOCKED: USER    (4) Unbound System's Energy  [=(2)] =   -2.48 kcal/mol
DOCKED: USER    
DOCKED: USER    
DOCKED: USER    NEWDPF move ligand.pdbqt
DOCKED: USER    NEWDPF about 260.046000 76.382000 -485.586000
DOCKED: USER    NEWDPF tran0 16.922599 132.073498 -5.610645
DOCKED: USER    NEWDPF quaternion0 -0.799467 -0.330323 -0.471835 0.170618
DOCKED: USER    NEWDPF axisangle0 -0.811364 -0.335238 -0.478856 160.352478
DOCKED: USER    NEWDPF quat0 -0.811364 -0.335238 -0.478856 160.352478
DOCKED: USER    NEWDPF dihe0 127.28 28.65 89.23 -164.62 -174.86 
DOCKED: USER  keepresnum = 1 
DOCKED: USER  
DOCKED: REMARK  5 active torsions:
DOCKED: REMARK  status: ('A' for Active; 'I' for Inactive)
DOCKED: REMARK    1  A    between atoms: C_15  and  N_1 
DOCKED: REMARK    2  A    between atoms: N_4  and  C_8 
DOCKED: REMARK    3  A    between atoms: C_16  and  C_15 
DOCKED: REMARK    4  A    between atoms: N_21  and  C_22 
DOCKED: REMARK    5  A    between atoms: C_23  and  C_22 
DOCKED: USER                              x       y       z     vdW  Elec       q    Type
DOCKED: USER                           _______ _______ _______ _____ _____    ______ ____
DOCKED: ROOT
DOCKED: ATOM      1  C   LIG d   1      18.104 134.214  -1.682 -0.17 +0.03    -0.040 A 
DOCKED: ATOM      2  C   LIG d   1      18.024 132.899  -1.206 -0.33 -0.01    +0.010 A 
DOCKED: ATOM      3  C   LIG d   1      18.200 132.616   0.153 -0.31 -0.02    +0.023 A 
DOCKED: ATOM      4  C   LIG d   1      18.465 133.658   1.072 -0.29 -0.04    +0.044 A 
DOCKED: ATOM      5  C   LIG d   1      18.552 134.963   0.620 -0.18 -0.02    +0.023 A 
DOCKED: ATOM      6  C   LIG d   1      18.374 135.247  -0.754 -0.12 -0.01    +0.010 A 
DOCKED: ATOM      7  C   LIG d   1      18.619 133.387   2.364 -0.37 -0.09    +0.099 C 
DOCKED: ATOM      8  N   LIG d   1      18.756 133.151   3.504 -4.24 +0.21    -0.191 NA
DOCKED: ENDROOT
DOCKED: BRANCH   1   9
DOCKED: ATOM      9  C   LIG d   1      17.902 134.539  -3.169 -0.12 -0.09    +0.168 C 
DOCKED: BRANCH   9  10
DOCKED: ATOM     10  N   LIG d   1      18.891 135.497  -3.718 -0.03 +0.20    -0.340 N 
DOCKED: ATOM     11  C   LIG d   1      18.557 136.696  -4.157 -0.07 -0.11    +0.183 A 
DOCKED: ATOM     12  N   LIG d   1      19.707 137.338  -4.599 -0.07 +0.22    -0.360 N 
DOCKED: ATOM     13  C   LIG d   1      20.801 136.431  -4.401 -0.28 -0.07    +0.115 A 
DOCKED: ATOM     14  HN  LIG d   1      19.763 138.278  -4.992 +0.07 -0.10    +0.166 HD
DOCKED: ATOM     15  C   LIG d   1      20.239 135.331  -3.861 -0.22 -0.03    +0.056 A 
DOCKED: BRANCH  15  16
DOCKED: ATOM     16  C   LIG d   1      20.953 134.044  -3.453 -0.23 -0.23    +0.331 C 
DOCKED: BRANCH  16  17
DOCKED: ATOM     17  N   LIG d   1      21.189 134.075  -2.009 -0.23 -0.09    +0.104 N 
DOCKED: ATOM     18  C   LIG d   1      21.929 135.317  -1.750 -0.15 -0.32    +0.375 C 
DOCKED: ATOM     19  C   LIG d   1      21.951 135.622  -0.221 -0.14 -0.26    +0.253 C 
DOCKED: ATOM     20  O   LIG d   1      22.202 136.745   0.169 -0.11 +0.21    -0.271 OA
DOCKED: ATOM     21  N   LIG d   1      21.673 134.588   0.679 -0.08 +0.44    -0.315 N 
DOCKED: ATOM     22  C   LIG d   1      21.379 133.260   0.135 -0.25 -0.23    +0.162 C 
DOCKED: ATOM     23  C   LIG d   1      21.747 132.910  -1.316 -0.01 -0.36    +0.293 C 
DOCKED: BRANCH  21  24
DOCKED: ATOM     24  C   LIG d   1      21.656 134.740   2.048 -0.13 -0.05    +0.038 A 
DOCKED: ATOM     25  C   LIG d   1      22.003 133.599   2.756 -0.13 -0.09    +0.053 A 
DOCKED: ATOM     26  C   LIG d   1      22.043 133.587   4.151 -0.30 -0.05    +0.036 A 
DOCKED: ATOM     27 CL   LIG d   1      22.500 132.115   4.924 -0.53 +0.15    -0.084 Cl
DOCKED: ATOM     28  C   LIG d   1      21.720 134.760   4.866 -0.22 -0.03    +0.024 A 
DOCKED: ATOM     29  C   LIG d   1      21.359 135.942   4.170 -0.12 -0.00    +0.004 A 
DOCKED: ATOM     30  C   LIG d   1      21.328 135.947   2.756 -0.09 -0.03    +0.030 A 
DOCKED: ENDBRANCH  21  24
DOCKED: ENDBRANCH  16  17
DOCKED: ENDBRANCH  15  16
DOCKED: ENDBRANCH   9  10
DOCKED: ENDBRANCH   1   9
DOCKED: TORSDOF 5
DOCKED: TER
DOCKED: ENDMDL
________________________________________________________________________________


	BEGINNING GENETIC ALGORITHM DOCKING 8 of 10
Run: 8 Seed: 1224185091 1399332153 [ Run 8 of 10 GA/GALS ]
Beginning LAMARCKIAN GENETIC ALGORITHM (LGA), with a maximum of 2500000 energy evaluations.

Final-Value: -13.892


	FINAL GENETIC ALGORITHM DOCKED STATE
	_______________________________________________


Detailed state:  trans 15.964 135.276 -5.033 quatxyzw -0.889279 0.159105 -0.217249 0.369690 center 260.046 76.382 -485.586 ntor 5 20.5204 19.0478 96.9937 13.5931 163.2583
State:	 15.964 135.276  -5.033  -0.957  0.171 -0.234 136.607     20.52   19.05   96.99   13.59  163.26

DOCKED: MODEL        8
DOCKED: USER    Run = 8
DOCKED: USER    DPF = ligand_protein_tz.dpf
DOCKED: USER  
DOCKED: USER    Estimated Free Energy of Binding    =  -11.33 kcal/mol  [=(1)+(2)+(3)-(4)]
DOCKED: USER    Estimated Inhibition Constant, Ki   =    4.92 nM (nanomolar)  [Temperature = 298.15 K]
DOCKED: USER    
DOCKED: USER    (1) Final Intermolecular Energy     =  -12.83 kcal/mol
DOCKED: USER        vdW + Hbond + desolv Energy     =  -12.26 kcal/mol
DOCKED: USER        Electrostatic Energy            =   -0.56 kcal/mol
DOCKED: USER    (2) Final Total Internal Energy     =   -1.07 kcal/mol
DOCKED: USER    (3) Torsional Free Energy           =   +1.49 kcal/mol
DOCKED: USER    (4) Unbound System's Energy  [=(2)] =   -1.07 kcal/mol
DOCKED: USER    
DOCKED: USER    
DOCKED: USER    NEWDPF move ligand.pdbqt
DOCKED: USER    NEWDPF about 260.046000 76.382000 -485.586000
DOCKED: USER    NEWDPF tran0 15.963612 135.275674 -5.032973
DOCKED: USER    NEWDPF quaternion0 -0.889279 0.159105 -0.217249 0.369690
DOCKED: USER    NEWDPF axisangle0 -0.957084 0.171237 -0.233814 136.607035
DOCKED: USER    NEWDPF quat0 -0.957084 0.171237 -0.233814 136.607035
DOCKED: USER    NEWDPF dihe0 20.52 19.05 96.99 13.59 163.26 
DOCKED: USER  keepresnum = 1 
DOCKED: USER  
DOCKED: REMARK  5 active torsions:
DOCKED: REMARK  status: ('A' for Active; 'I' for Inactive)
DOCKED: REMARK    1  A    between atoms: C_15  and  N_1 
DOCKED: REMARK    2  A    between atoms: N_4  and  C_8 
DOCKED: REMARK    3  A    between atoms: C_16  and  C_15 
DOCKED: REMARK    4  A    between atoms: N_21  and  C_22 
DOCKED: REMARK    5  A    between atoms: C_23  and  C_22 
DOCKED: USER                              x       y       z     vdW  Elec       q    Type
DOCKED: USER                           _______ _______ _______ _____ _____    ______ ____
DOCKED: ROOT
DOCKED: ATOM      1  C   LIG d   1      18.970 134.552  -1.590 -0.13 +0.03    -0.040 A 
DOCKED: ATOM      2  C   LIG d   1      17.804 134.077  -0.975 -0.24 -0.01    +0.010 A 
DOCKED: ATOM      3  C   LIG d   1      17.819 133.655   0.359 -0.26 -0.02    +0.023 A 
DOCKED: ATOM      4  C   LIG d   1      19.017 133.700   1.111 -0.26 -0.04    +0.044 A 
DOCKED: ATOM      5  C   LIG d   1      20.178 134.162   0.519 -0.19 -0.02    +0.023 A 
DOCKED: ATOM      6  C   LIG d   1      20.162 134.587  -0.830 -0.15 -0.01    +0.010 A 
DOCKED: ATOM      7  C   LIG d   1      19.023 133.310   2.381 -0.41 -0.10    +0.099 C 
DOCKED: ATOM      8  N   LIG d   1      19.032 132.967   3.502 -4.24 +0.21    -0.191 NA
DOCKED: ENDROOT
DOCKED: BRANCH   1   9
DOCKED: ATOM      9  C   LIG d   1      18.965 135.028  -3.050 -0.11 -0.10    +0.168 C 
DOCKED: BRANCH   9  10
DOCKED: ATOM     10  N   LIG d   1      20.297 134.999  -3.700 -0.09 +0.21    -0.340 N 
DOCKED: ATOM     11  C   LIG d   1      20.975 133.883  -3.890 -0.29 -0.12    +0.183 A 
DOCKED: ATOM     12  N   LIG d   1      22.172 134.199  -4.521 -0.22 +0.25    -0.360 N 
DOCKED: ATOM     13  C   LIG d   1      22.187 135.621  -4.711 -0.40 -0.08    +0.115 A 
DOCKED: ATOM     14  HN  LIG d   1      22.903 133.543  -4.798 -0.24 -0.13    +0.166 HD
DOCKED: ATOM     15  C   LIG d   1      21.019 136.048  -4.192 -0.32 -0.04    +0.056 A 
DOCKED: BRANCH  15  16
DOCKED: ATOM     16  C   LIG d   1      20.519 137.489  -4.125 -0.14 -0.22    +0.331 C 
DOCKED: BRANCH  16  17
DOCKED: ATOM     17  N   LIG d   1      19.451 137.662  -5.111 -0.18 -0.06    +0.104 N 
DOCKED: ATOM     18  C   LIG d   1      20.084 137.480  -6.424 -0.28 -0.21    +0.375 C 
DOCKED: ATOM     19  C   LIG d   1      18.995 137.317  -7.528 -0.35 -0.16    +0.253 C 
DOCKED: ATOM     20  O   LIG d   1      19.288 136.823  -8.599 -0.39 +0.20    -0.271 OA
DOCKED: ATOM     21  N   LIG d   1      17.689 137.740  -7.259 -0.12 +0.20    -0.315 N 
DOCKED: ATOM     22  C   LIG d   1      17.411 138.325  -5.945 -0.18 -0.10    +0.162 C 
DOCKED: ATOM     23  C   LIG d   1      18.559 138.824  -5.052 -0.11 -0.18    +0.293 C 
DOCKED: BRANCH  21  24
DOCKED: ATOM     24  C   LIG d   1      16.645 137.639  -8.151 -0.33 -0.02    +0.038 A 
DOCKED: ATOM     25  C   LIG d   1      15.766 136.599  -7.892 -0.26 -0.03    +0.053 A 
DOCKED: ATOM     26  C   LIG d   1      14.651 136.364  -8.697 -0.38 -0.02    +0.036 A 
DOCKED: ATOM     27 CL   LIG d   1      13.621 135.048  -8.271 -0.54 +0.05    -0.084 Cl
DOCKED: ATOM     28  C   LIG d   1      14.406 137.199  -9.807 -0.55 -0.02    +0.024 A 
DOCKED: ATOM     29  C   LIG d   1      15.289 138.271 -10.100 -0.56 -0.00    +0.004 A 
DOCKED: ATOM     30  C   LIG d   1      16.412 138.507  -9.275 -0.34 -0.02    +0.030 A 
DOCKED: ENDBRANCH  21  24
DOCKED: ENDBRANCH  16  17
DOCKED: ENDBRANCH  15  16
DOCKED: ENDBRANCH   9  10
DOCKED: ENDBRANCH   1   9
DOCKED: TORSDOF 5
DOCKED: TER
DOCKED: ENDMDL
________________________________________________________________________________


	BEGINNING GENETIC ALGORITHM DOCKING 9 of 10
Run: 9 Seed: 1696429950 1354484586 [ Run 9 of 10 GA/GALS ]
Beginning LAMARCKIAN GENETIC ALGORITHM (LGA), with a maximum of 2500000 energy evaluations.

Final-Value: -14.335


	FINAL GENETIC ALGORITHM DOCKED STATE
	_______________________________________________


Detailed state:  trans 16.875 131.561 -5.416 quatxyzw -0.678730 -0.572555 -0.454601 -0.069604 center 260.046 76.382 -485.586 ntor 5 15.4590 -26.9070 -164.8096 0.5357 43.8135
State:	 16.875 131.561  -5.416  -0.680 -0.574 -0.456 -172.017     15.46  -26.91 -164.81    0.54   43.81

DOCKED: MODEL        9
DOCKED: USER    Run = 9
DOCKED: USER    DPF = ligand_protein_tz.dpf
DOCKED: USER  
DOCKED: USER    Estimated Free Energy of Binding    =  -11.16 kcal/mol  [=(1)+(2)+(3)-(4)]
DOCKED: USER    Estimated Inhibition Constant, Ki   =    6.58 nM (nanomolar)  [Temperature = 298.15 K]
DOCKED: USER    
DOCKED: USER    (1) Final Intermolecular Energy     =  -12.65 kcal/mol
DOCKED: USER        vdW + Hbond + desolv Energy     =  -12.38 kcal/mol
DOCKED: USER        Electrostatic Energy            =   -0.28 kcal/mol
DOCKED: USER    (2) Final Total Internal Energy     =   -1.68 kcal/mol
DOCKED: USER    (3) Torsional Free Energy           =   +1.49 kcal/mol
DOCKED: USER    (4) Unbound System's Energy  [=(2)] =   -1.68 kcal/mol
DOCKED: USER    
DOCKED: USER    
DOCKED: USER    NEWDPF move ligand.pdbqt
DOCKED: USER    NEWDPF about 260.046000 76.382000 -485.586000
DOCKED: USER    NEWDPF tran0 16.875491 131.561362 -5.416355
DOCKED: USER    NEWDPF quaternion0 -0.678730 -0.572555 -0.454601 -0.069604
DOCKED: USER    NEWDPF axisangle0 -0.680380 -0.573947 -0.455706 -172.017468
DOCKED: USER    NEWDPF quat0 -0.680380 -0.573947 -0.455706 -172.017468
DOCKED: USER    NEWDPF dihe0 15.46 -26.91 -164.81 0.54 43.81 
DOCKED: USER  keepresnum = 1 
DOCKED: USER  
DOCKED: REMARK  5 active torsions:
DOCKED: REMARK  status: ('A' for Active; 'I' for Inactive)
DOCKED: REMARK    1  A    between atoms: C_15  and  N_1 
DOCKED: REMARK    2  A    between atoms: N_4  and  C_8 
DOCKED: REMARK    3  A    between atoms: C_16  and  C_15 
DOCKED: REMARK    4  A    between atoms: N_21  and  C_22 
DOCKED: REMARK    5  A    between atoms: C_23  and  C_22 
DOCKED: USER                              x       y       z     vdW  Elec       q    Type
DOCKED: USER                           _______ _______ _______ _____ _____    ______ ____
DOCKED: ROOT
DOCKED: ATOM      1  C   LIG d   1      17.112 133.785  -1.365 -0.27 +0.02    -0.040 A 
DOCKED: ATOM      2  C   LIG d   1      17.973 132.715  -1.085 -0.36 -0.01    +0.010 A 
DOCKED: ATOM      3  C   LIG d   1      18.529 132.557   0.188 -0.36 -0.02    +0.023 A 
DOCKED: ATOM      4  C   LIG d   1      18.233 133.480   1.219 -0.23 -0.04    +0.044 A 
DOCKED: ATOM      5  C   LIG d   1      17.389 134.545   0.960 -0.19 -0.02    +0.023 A 
DOCKED: ATOM      6  C   LIG d   1      16.827 134.703  -0.328 -0.29 -0.01    +0.010 A 
DOCKED: ATOM      7  C   LIG d   1      18.754 133.319   2.430 -0.42 -0.10    +0.099 C 
DOCKED: ATOM      8  N   LIG d   1      19.211 133.180   3.501 -4.19 +0.21    -0.191 NA
DOCKED: ENDROOT
DOCKED: BRANCH   1   9
DOCKED: ATOM      9  C   LIG d   1      16.487 133.963  -2.755 -0.21 -0.09    +0.168 C 
DOCKED: BRANCH   9  10
DOCKED: ATOM     10  N   LIG d   1      15.268 133.150  -2.980 -0.15 +0.17    -0.340 N 
DOCKED: ATOM     11  C   LIG d   1      14.258 133.127  -2.131 -0.13 -0.09    +0.183 A 
DOCKED: ATOM     12  N   LIG d   1      13.282 132.276  -2.634 -0.34 +0.18    -0.360 N 
DOCKED: ATOM     13  C   LIG d   1      13.771 131.760  -3.880 -0.51 -0.05    +0.115 A 
DOCKED: ATOM     14  HN  LIG d   1      12.385 132.058  -2.199 +0.09 -0.10    +0.166 HD
DOCKED: ATOM     15  C   LIG d   1      14.982 132.331  -4.034 -0.42 -0.02    +0.056 A 
DOCKED: BRANCH  15  16
DOCKED: ATOM     16  C   LIG d   1      15.950 132.124  -5.197 -0.23 -0.10    +0.331 C 
DOCKED: BRANCH  16  17
DOCKED: ATOM     17  N   LIG d   1      17.309 132.407  -4.732 -0.34 -0.04    +0.104 N 
DOCKED: ATOM     18  C   LIG d   1      17.716 133.644  -5.411 -0.13 -0.13    +0.375 C 
DOCKED: ATOM     19  C   LIG d   1      19.007 134.219  -4.753 -0.07 -0.12    +0.253 C 
DOCKED: ATOM     20  O   LIG d   1      19.309 135.384  -4.927 -0.15 +0.14    -0.271 OA
DOCKED: ATOM     21  N   LIG d   1      19.797 133.377  -3.963 -0.18 +0.18    -0.315 N 
DOCKED: ATOM     22  C   LIG d   1      19.370 131.986  -3.797 -0.42 -0.09    +0.162 C 
DOCKED: ATOM     23  C   LIG d   1      18.340 131.365  -4.756 -0.43 -0.11    +0.293 C 
DOCKED: BRANCH  21  24
DOCKED: ATOM     24  C   LIG d   1      20.952 133.775  -3.327 -0.37 -0.03    +0.038 A 
DOCKED: ATOM     25  C   LIG d   1      20.787 134.104  -1.990 -0.24 -0.04    +0.053 A 
DOCKED: ATOM     26  C   LIG d   1      21.860 134.518  -1.200 -0.27 -0.04    +0.036 A 
DOCKED: ATOM     27 CL   LIG d   1      21.538 134.889   0.454 -0.23 +0.10    -0.084 Cl
DOCKED: ATOM     28  C   LIG d   1      23.148 134.612  -1.769 -0.41 -0.03    +0.024 A 
DOCKED: ATOM     29  C   LIG d   1      23.348 134.285  -3.135 -0.50 -0.00    +0.004 A 
DOCKED: ATOM     30  C   LIG d   1      22.257 133.859  -3.926 -0.46 -0.02    +0.030 A 
DOCKED: ENDBRANCH  21  24
DOCKED: ENDBRANCH  16  17
DOCKED: ENDBRANCH  15  16
DOCKED: ENDBRANCH   9  10
DOCKED: ENDBRANCH   1   9
DOCKED: TORSDOF 5
DOCKED: TER
DOCKED: ENDMDL
________________________________________________________________________________


	BEGINNING GENETIC ALGORITHM DOCKING 10 of 10
Run: 10 Seed: 1864664489 971909954 [ Run 10 of 10 GA/GALS ]
Beginning LAMARCKIAN GENETIC ALGORITHM (LGA), with a maximum of 2500000 energy evaluations.

Final-Value: -13.662


	FINAL GENETIC ALGORITHM DOCKED STATE
	_______________________________________________


Detailed state:  trans 21.048 136.435 -4.963 quatxyzw -0.310139 0.784732 0.347110 0.409297 center 260.046 76.382 -485.586 ntor 5 -149.1722 -168.3848 108.3335 -121.9055 161.0981
State:	 21.048 136.435  -4.963  -0.340  0.860  0.380 131.679   -149.17 -168.38  108.33 -121.91  161.10

DOCKED: MODEL       10
DOCKED: USER    Run = 10
DOCKED: USER    DPF = ligand_protein_tz.dpf
DOCKED: USER  
DOCKED: USER    Estimated Free Energy of Binding    =  -10.38 kcal/mol  [=(1)+(2)+(3)-(4)]
DOCKED: USER    Estimated Inhibition Constant, Ki   =   24.48 nM (nanomolar)  [Temperature = 298.15 K]
DOCKED: USER    
DOCKED: USER    (1) Final Intermolecular Energy     =  -11.88 kcal/mol
DOCKED: USER        vdW + Hbond + desolv Energy     =  -11.40 kcal/mol
DOCKED: USER        Electrostatic Energy            =   -0.48 kcal/mol
DOCKED: USER    (2) Final Total Internal Energy     =   -1.79 kcal/mol
DOCKED: USER    (3) Torsional Free Energy           =   +1.49 kcal/mol
DOCKED: USER    (4) Unbound System's Energy  [=(2)] =   -1.79 kcal/mol
DOCKED: USER    
DOCKED: USER    
DOCKED: USER    NEWDPF move ligand.pdbqt
DOCKED: USER    NEWDPF about 260.046000 76.382000 -485.586000
DOCKED: USER    NEWDPF tran0 21.048170 136.434992 -4.963336
DOCKED: USER    NEWDPF quaternion0 -0.310139 0.784732 0.347110 0.409297
DOCKED: USER    NEWDPF axisangle0 -0.339915 0.860074 0.380436 131.678590
DOCKED: USER    NEWDPF quat0 -0.339915 0.860074 0.380436 131.678590
DOCKED: USER    NEWDPF dihe0 -149.17 -168.38 108.33 -121.91 161.10 
DOCKED: USER  keepresnum = 1 
DOCKED: USER  
DOCKED: REMARK  5 active torsions:
DOCKED: REMARK  status: ('A' for Active; 'I' for Inactive)
DOCKED: REMARK    1  A    between atoms: C_15  and  N_1 
DOCKED: REMARK    2  A    between atoms: N_4  and  C_8 
DOCKED: REMARK    3  A    between atoms: C_16  and  C_15 
DOCKED: REMARK    4  A    between atoms: N_21  and  C_22 
DOCKED: REMARK    5  A    between atoms: C_23  and  C_22 
DOCKED: USER                              x       y       z     vdW  Elec       q    Type
DOCKED: USER                           _______ _______ _______ _____ _____    ______ ____
DOCKED: ROOT
DOCKED: ATOM      1  C   LIG d   1      19.455 133.472  -1.786 -0.22 +0.03    -0.040 A 
DOCKED: ATOM      2  C   LIG d   1      19.815 134.533  -0.944 -0.15 -0.01    +0.010 A 
DOCKED: ATOM      3  C   LIG d   1      19.709 134.412   0.445 -0.16 -0.02    +0.023 A 
DOCKED: ATOM      4  C   LIG d   1      19.232 133.213   1.026 -0.29 -0.04    +0.044 A 
DOCKED: ATOM      5  C   LIG d   1      18.868 132.157   0.211 -0.41 -0.02    +0.023 A 
DOCKED: ATOM      6  C   LIG d   1      18.976 132.280  -1.194 -0.39 -0.01    +0.010 A 
DOCKED: ATOM      7  C   LIG d   1      19.145 133.099   2.347 -0.43 -0.10    +0.099 C 
DOCKED: ATOM      8  N   LIG d   1      19.066 132.995   3.512 -4.24 +0.21    -0.191 NA
DOCKED: ENDROOT
DOCKED: BRANCH   1   9
DOCKED: ATOM      9  C   LIG d   1      19.577 133.587  -3.312 -0.26 -0.10    +0.168 C 
DOCKED: BRANCH   9  10
DOCKED: ATOM     10  N   LIG d   1      18.746 132.614  -4.060 -0.20 +0.17    -0.340 N 
DOCKED: ATOM     11  C   LIG d   1      19.032 131.328  -4.121 -0.32 -0.10    +0.183 A 
DOCKED: ATOM     12  N   LIG d   1      18.062 130.699  -4.892 -0.32 +0.11    -0.360 N 
DOCKED: ATOM     13  C   LIG d   1      17.136 131.710  -5.315 -0.43 -0.02    +0.115 A 
DOCKED: ATOM     14  HN  LIG d   1      18.016 129.704  -5.115 +0.10 -0.03    +0.166 HD
DOCKED: ATOM     15  C   LIG d   1      17.607 132.852  -4.775 -0.34 -0.02    +0.056 A 
DOCKED: BRANCH  15  16
DOCKED: ATOM     16  C   LIG d   1      17.003 134.247  -4.914 -0.11 -0.15    +0.331 C 
DOCKED: BRANCH  16  17
DOCKED: ATOM     17  N   LIG d   1      16.618 134.727  -3.586 -0.13 -0.05    +0.104 N 
DOCKED: ATOM     18  C   LIG d   1      17.595 135.767  -3.237 -0.03 -0.21    +0.375 C 
DOCKED: ATOM     19  C   LIG d   1      17.101 136.575  -1.999 -0.07 -0.15    +0.253 C 
DOCKED: ATOM     20  O   LIG d   1      17.572 137.670  -1.763 -0.04 +0.17    -0.271 OA
DOCKED: ATOM     21  N   LIG d   1      16.111 136.021  -1.179 -0.11 +0.19    -0.315 N 
DOCKED: ATOM     22  C   LIG d   1      15.590 134.697  -1.527 -0.31 -0.09    +0.162 C 
DOCKED: ATOM     23  C   LIG d   1      16.359 133.783  -2.495 -0.18 -0.16    +0.293 C 
DOCKED: BRANCH  21  24
DOCKED: ATOM     24  C   LIG d   1      15.593 136.644  -0.066 -0.30 -0.03    +0.038 A 
DOCKED: ATOM     25  C   LIG d   1      16.494 136.801   0.976 -0.24 -0.04    +0.053 A 
DOCKED: ATOM     26  C   LIG d   1      16.131 137.420   2.172 -0.32 -0.04    +0.036 A 
DOCKED: ATOM     27 CL   LIG d   1      17.340 137.571   3.393 -0.33 +0.10    -0.084 Cl
DOCKED: ATOM     28  C   LIG d   1      14.814 137.897   2.336 -0.34 -0.03    +0.024 A 
DOCKED: ATOM     29  C   LIG d   1      13.868 137.749   1.289 -0.45 -0.00    +0.004 A 
DOCKED: ATOM     30  C   LIG d   1      14.246 137.127   0.078 -0.40 -0.02    +0.030 A 
DOCKED: ENDBRANCH  21  24
DOCKED: ENDBRANCH  16  17
DOCKED: ENDBRANCH  15  16
DOCKED: ENDBRANCH   9  10
DOCKED: ENDBRANCH   1   9
DOCKED: TORSDOF 5
DOCKED: TER
DOCKED: ENDMDL
________________________________________________________________________________

DPF> analysis                             # perform a ranked cluster analysis


		CLUSTER ANALYSIS OF CONFORMATIONS
		_________________________________

Number of conformations = 10

RMSD cluster analysis will be performed using the ligand atoms only (30 / 30 total atoms).

Outputting structurally similar clusters, ranked in order of increasing energy.


________________________________________________________________________________

Number of distinct conformational clusters found = 8,  out of 10 runs,
Using an rmsd-tolerance of 2.0 A


	CLUSTERING HISTOGRAM
	____________________

________________________________________________________________________________
     |           |     |           |     |                                    
Clus | Lowest    | Run | Mean      | Num | Histogram                          
-ter | Binding   |     | Binding   | in  |                                    
Rank | Energy    |     | Energy    | Clus|    5    10   15   20   25   30   35
_____|___________|_____|___________|_____|____:____|____:____|____:____|____:___
   1 |    -11.35 |   2 |    -11.35 |   1 |#
   2 |    -11.33 |   8 |    -11.33 |   1 |#
   3 |    -11.33 |   5 |    -10.99 |   3 |###
   4 |    -11.16 |   9 |    -11.16 |   1 |#
   5 |     -9.64 |   1 |     -9.64 |   1 |#
   6 |     -9.34 |   6 |     -9.34 |   1 |#
   7 |     -9.34 |   4 |     -9.34 |   1 |#
   8 |     -8.83 |   7 |     -8.83 |   1 |#
_____|___________|_____|___________|_____|______________________________________


Number of multi-member conformational clusters found = 1, out of 10 runs.

	RMSD TABLE
	__________

_____________________________________________________________________
     |      |      |           |         |                 |
Rank | Sub- | Run  | Binding   | Cluster | Reference       | Grep
     | Rank |      | Energy    | RMSD    | RMSD            | Pattern
_____|______|______|___________|_________|_________________|___________
   1      1      2      -11.35      0.00    540.93           RANKING
   2      1      8      -11.33      0.00    537.87           RANKING
   3      1      5      -11.33      0.00    540.99           RANKING
   3      2      3      -11.26      0.33    541.02           RANKING
   3      3     10      -10.38      1.46    541.13           RANKING
   4      1      9      -11.16      0.00    539.86           RANKING
   5      1      1       -9.64      0.00    541.23           RANKING
   6      1      6       -9.34      0.00    539.38           RANKING
   7      1      4       -9.34      0.00    538.64           RANKING
   8      1      7       -8.83      0.00    540.88           RANKING
_______________________________________________________________________



	INFORMATION ENTROPY ANALYSIS FOR THIS CLUSTERING
	________________________________________________


Information entropy for this clustering = 0.86  (rmstol = 2.00 Angstrom)

_______________________________________________________________________


	STATISTICAL MECHANICAL ANALYSIS
	_______________________________


Partition function, Q =    10.18            at Temperature, T = 298.15 K
Free energy,        A ~ -1374.64 kcal/mol   at Temperature, T = 298.15 K
Internal energy,    U =   -10.40 kcal/mol   at Temperature, T = 298.15 K
Entropy,            S =     4.58 kcal/mol/K at Temperature, T = 298.15 K

_______________________________________________________________________


	LOWEST ENERGY DOCKED CONFORMATION from EACH CLUSTER
	___________________________________________________



Keeping original residue number (specified in the input PDBQ file) for outputting.

MODEL        2
USER    Run = 2
USER    Cluster Rank = 1
USER    Number of conformations in this cluster = 1
USER  
USER    RMSD from reference structure       = 540.929 A
USER  
USER    Estimated Free Energy of Binding    =  -11.35 kcal/mol  [=(1)+(2)+(3)-(4)]
USER    Estimated Inhibition Constant, Ki   =    4.78 nM (nanomolar)  [Temperature = 298.15 K]
USER    
USER    (1) Final Intermolecular Energy     =  -12.84 kcal/mol
USER        vdW + Hbond + desolv Energy     =  -12.28 kcal/mol
USER        Electrostatic Energy            =   -0.57 kcal/mol
USER    (2) Final Total Internal Energy     =   -2.14 kcal/mol
USER    (3) Torsional Free Energy           =   +1.49 kcal/mol
USER    (4) Unbound System's Energy  [=(2)] =   -2.14 kcal/mol
USER    
USER    
USER  
USER    DPF = ligand_protein_tz.dpf
USER    NEWDPF move	ligand.pdbqt
USER    NEWDPF about	260.046000 76.382000 -485.586000
USER    NEWDPF tran0	18.254299 129.916259 -5.091426
USER    NEWDPF axisangle0	0.819293 0.303652 0.486369 -140.698428
USER    NEWDPF quaternion0	0.771577 0.285967 0.458043 -0.336286
USER    NEWDPF dihe0	179.85 -31.04 -119.71 20.04 164.12 
USER  
USER                              x       y       z    vdW   Elec        q     RMS 
ATOM      1  C   LIG d   1      19.485 132.705  -1.610 -0.32 +0.03    -0.040    540.929
ATOM      2  C   LIG d   1      19.062 131.593  -0.869 -0.44 -0.01    +0.010    540.929
ATOM      3  C   LIG d   1      19.032 131.633   0.529 -0.47 -0.02    +0.023    540.929
ATOM      4  C   LIG d   1      19.431 132.801   1.221 -0.35 -0.04    +0.044    540.929
ATOM      5  C   LIG d   1      19.856 133.906   0.507 -0.20 -0.02    +0.023    540.929
ATOM      6  C   LIG d   1      19.887 133.864  -0.907 -0.20 -0.01    +0.010    540.929
ATOM      7  C   LIG d   1      19.389 132.838   2.548 -0.46 -0.11    +0.099    540.929
ATOM      8  N   LIG d   1      19.352 132.875   3.719 -4.17 +0.23    -0.191    540.929
ATOM      9  C   LIG d   1      19.514 132.678  -3.144 -0.35 -0.11    +0.168    540.929
ATOM     10  N   LIG d   1      20.451 133.653  -3.750 -0.17 +0.22    -0.340    540.929
ATOM     11  C   LIG d   1      21.762 133.534  -3.660 -0.35 -0.14    +0.183    540.929
ATOM     12  N   LIG d   1      22.347 134.602  -4.330 -0.22 +0.26    -0.360    540.929
ATOM     13  C   LIG d   1      21.281 135.409  -4.851 -0.36 -0.07    +0.115    540.929
ATOM     14  HN  LIG d   1      23.346 134.779  -4.433 -0.47 -0.14    +0.166    540.929
ATOM     15  C   LIG d   1      20.154 134.778  -4.465 -0.21 -0.03    +0.056    540.929
ATOM     16  C   LIG d   1      18.718 135.213  -4.748 -0.10 -0.17    +0.331    540.929
ATOM     17  N   LIG d   1      18.107 135.659  -3.495 -0.08 -0.06    +0.104    540.929
ATOM     18  C   LIG d   1      17.023 134.708  -3.216 -0.05 -0.20    +0.375    540.929
ATOM     19  C   LIG d   1      16.516 134.885  -1.753 -0.18 -0.15    +0.253    540.929
ATOM     20  O   LIG d   1      15.883 133.995  -1.219 -0.26 +0.15    -0.271    540.929
ATOM     21  N   LIG d   1      16.807 136.073  -1.074 -0.07 +0.20    -0.315    540.929
ATOM     22  C   LIG d   1      17.576 137.100  -1.780 -0.07 -0.10    +0.162    540.929
ATOM     23  C   LIG d   1      17.713 137.059  -3.311 -0.04 -0.17    +0.293    540.929
ATOM     24  C   LIG d   1      16.419 136.338   0.221 -0.25 -0.03    +0.038    540.929
ATOM     25  C   LIG d   1      15.268 137.103   0.330 -0.32 -0.04    +0.053    540.929
ATOM     26  C   LIG d   1      14.735 137.453   1.571 -0.40 -0.04    +0.036    540.929
ATOM     27 CL   LIG d   1      13.293 138.398   1.584 -0.78 +0.08    -0.084    540.929
ATOM     28  C   LIG d   1      15.381 137.025   2.750 -0.36 -0.04    +0.024    540.929
ATOM     29  C   LIG d   1      16.562 136.243   2.672 -0.31 -0.00    +0.004    540.929
ATOM     30  C   LIG d   1      17.091 135.886   1.410 -0.27 -0.02    +0.030    540.929
TER
ENDMDL
MODEL        8
USER    Run = 8
USER    Cluster Rank = 2
USER    Number of conformations in this cluster = 1
USER  
USER    RMSD from reference structure       = 537.874 A
USER  
USER    Estimated Free Energy of Binding    =  -11.33 kcal/mol  [=(1)+(2)+(3)-(4)]
USER    Estimated Inhibition Constant, Ki   =    4.92 nM (nanomolar)  [Temperature = 298.15 K]
USER    
USER    (1) Final Intermolecular Energy     =  -12.83 kcal/mol
USER        vdW + Hbond + desolv Energy     =  -12.26 kcal/mol
USER        Electrostatic Energy            =   -0.56 kcal/mol
USER    (2) Final Total Internal Energy     =   -1.07 kcal/mol
USER    (3) Torsional Free Energy           =   +1.49 kcal/mol
USER    (4) Unbound System's Energy  [=(2)] =   -1.07 kcal/mol
USER    
USER    
USER  
USER    DPF = ligand_protein_tz.dpf
USER    NEWDPF move	ligand.pdbqt
USER    NEWDPF about	260.046000 76.382000 -485.586000
USER    NEWDPF tran0	15.963612 135.275674 -5.032973
USER    NEWDPF axisangle0	-0.957084 0.171237 -0.233814 136.607035
USER    NEWDPF quaternion0	-0.889279 0.159105 -0.217249 0.369690
USER    NEWDPF dihe0	20.52 19.05 96.99 13.59 163.26 
USER  
USER                              x       y       z    vdW   Elec        q     RMS 
ATOM      1  C   LIG d   1      18.970 134.552  -1.590 -0.13 +0.03    -0.040    537.874
ATOM      2  C   LIG d   1      17.804 134.077  -0.975 -0.24 -0.01    +0.010    537.874
ATOM      3  C   LIG d   1      17.819 133.655   0.359 -0.26 -0.02    +0.023    537.874
ATOM      4  C   LIG d   1      19.017 133.700   1.111 -0.26 -0.04    +0.044    537.874
ATOM      5  C   LIG d   1      20.178 134.162   0.519 -0.19 -0.02    +0.023    537.874
ATOM      6  C   LIG d   1      20.162 134.587  -0.830 -0.15 -0.01    +0.010    537.874
ATOM      7  C   LIG d   1      19.023 133.310   2.381 -0.41 -0.10    +0.099    537.874
ATOM      8  N   LIG d   1      19.032 132.967   3.502 -4.24 +0.21    -0.191    537.874
ATOM      9  C   LIG d   1      18.965 135.028  -3.050 -0.11 -0.10    +0.168    537.874
ATOM     10  N   LIG d   1      20.297 134.999  -3.700 -0.09 +0.21    -0.340    537.874
ATOM     11  C   LIG d   1      20.975 133.883  -3.890 -0.29 -0.12    +0.183    537.874
ATOM     12  N   LIG d   1      22.172 134.199  -4.521 -0.22 +0.25    -0.360    537.874
ATOM     13  C   LIG d   1      22.187 135.621  -4.711 -0.40 -0.08    +0.115    537.874
ATOM     14  HN  LIG d   1      22.903 133.543  -4.798 -0.24 -0.13    +0.166    537.874
ATOM     15  C   LIG d   1      21.019 136.048  -4.192 -0.32 -0.04    +0.056    537.874
ATOM     16  C   LIG d   1      20.519 137.489  -4.125 -0.14 -0.22    +0.331    537.874
ATOM     17  N   LIG d   1      19.451 137.662  -5.111 -0.18 -0.06    +0.104    537.874
ATOM     18  C   LIG d   1      20.084 137.480  -6.424 -0.28 -0.21    +0.375    537.874
ATOM     19  C   LIG d   1      18.995 137.317  -7.528 -0.35 -0.16    +0.253    537.874
ATOM     20  O   LIG d   1      19.288 136.823  -8.599 -0.39 +0.20    -0.271    537.874
ATOM     21  N   LIG d   1      17.689 137.740  -7.259 -0.12 +0.20    -0.315    537.874
ATOM     22  C   LIG d   1      17.411 138.325  -5.945 -0.18 -0.10    +0.162    537.874
ATOM     23  C   LIG d   1      18.559 138.824  -5.052 -0.11 -0.18    +0.293    537.874
ATOM     24  C   LIG d   1      16.645 137.639  -8.151 -0.33 -0.02    +0.038    537.874
ATOM     25  C   LIG d   1      15.766 136.599  -7.892 -0.26 -0.03    +0.053    537.874
ATOM     26  C   LIG d   1      14.651 136.364  -8.697 -0.38 -0.02    +0.036    537.874
ATOM     27 CL   LIG d   1      13.621 135.048  -8.271 -0.54 +0.05    -0.084    537.874
ATOM     28  C   LIG d   1      14.406 137.199  -9.807 -0.55 -0.02    +0.024    537.874
ATOM     29  C   LIG d   1      15.289 138.271 -10.100 -0.56 -0.00    +0.004    537.874
ATOM     30  C   LIG d   1      16.412 138.507  -9.275 -0.34 -0.02    +0.030    537.874
TER
ENDMDL
MODEL        5
USER    Run = 5
USER    Cluster Rank = 3
USER    Number of conformations in this cluster = 3
USER  
USER    RMSD from reference structure       = 540.994 A
USER  
USER    Estimated Free Energy of Binding    =  -11.33 kcal/mol  [=(1)+(2)+(3)-(4)]
USER    Estimated Inhibition Constant, Ki   =    4.93 nM (nanomolar)  [Temperature = 298.15 K]
USER    
USER    (1) Final Intermolecular Energy     =  -12.82 kcal/mol
USER        vdW + Hbond + desolv Energy     =  -12.31 kcal/mol
USER        Electrostatic Energy            =   -0.52 kcal/mol
USER    (2) Final Total Internal Energy     =   -1.91 kcal/mol
USER    (3) Torsional Free Energy           =   +1.49 kcal/mol
USER    (4) Unbound System's Energy  [=(2)] =   -1.91 kcal/mol
USER    
USER    
USER  
USER    DPF = ligand_protein_tz.dpf
USER    NEWDPF move	ligand.pdbqt
USER    NEWDPF about	260.046000 76.382000 -485.586000
USER    NEWDPF tran0	17.727000 135.619503 -5.210219
USER    NEWDPF axisangle0	-0.847666 0.528644 -0.044706 122.748270
USER    NEWDPF quaternion0	-0.744053 0.464026 -0.039241 0.479088
USER    NEWDPF dihe0	-170.33 31.61 103.94 -111.90 -110.88 
USER  
USER                              x       y       z    vdW   Elec        q     RMS 
ATOM      1  C   LIG d   1      19.681 133.252  -1.748 -0.26 +0.03    -0.040    540.994
ATOM      2  C   LIG d   1      18.589 133.797  -1.059 -0.21 -0.01    +0.010    540.994
ATOM      3  C   LIG d   1      18.437 133.599   0.317 -0.28 -0.02    +0.023    540.994
ATOM      4  C   LIG d   1      19.387 132.838   1.040 -0.33 -0.04    +0.044    540.994
ATOM      5  C   LIG d   1      20.469 132.289   0.376 -0.42 -0.03    +0.023    540.994
ATOM      6  C   LIG d   1      20.621 132.490  -1.015 -0.39 -0.01    +0.010    540.994
ATOM      7  C   LIG d   1      19.246 132.663   2.349 -0.48 -0.11    +0.099    540.994
ATOM      8  N   LIG d   1      19.125 132.506   3.504 -4.24 +0.22    -0.191    540.994
ATOM      9  C   LIG d   1      19.864 133.471  -3.256 -0.29 -0.11    +0.168    540.994
ATOM     10  N   LIG d   1      18.900 132.723  -4.098 -0.19 +0.18    -0.340    540.994
ATOM     11  C   LIG d   1      18.841 131.406  -4.117 -0.38 -0.09    +0.183    540.994
ATOM     12  N   LIG d   1      17.838 131.024  -4.999 -0.34 +0.09    -0.360    540.994
ATOM     13  C   LIG d   1      17.269 132.226  -5.539 -0.38 -0.02    +0.115    540.994
ATOM     14  HN  LIG d   1      17.558 130.069  -5.222 +0.11 -0.02    +0.166    540.994
ATOM     15  C   LIG d   1      17.958 133.224  -4.950 -0.29 -0.02    +0.056    540.994
ATOM     16  C   LIG d   1      17.765 134.723  -5.169 -0.11 -0.15    +0.331    540.994
ATOM     17  N   LIG d   1      17.265 135.318  -3.929 -0.10 -0.06    +0.104    540.994
ATOM     18  C   LIG d   1      16.090 134.523  -3.547 -0.08 -0.19    +0.375    540.994
ATOM     19  C   LIG d   1      15.670 134.853  -2.083 -0.23 -0.14    +0.253    540.994
ATOM     20  O   LIG d   1      14.960 134.081  -1.468 -0.28 +0.14    -0.271    540.994
ATOM     21  N   LIG d   1      16.128 136.038  -1.497 -0.09 +0.19    -0.315    540.994
ATOM     22  C   LIG d   1      16.981 136.919  -2.299 -0.09 -0.10    +0.162    540.994
ATOM     23  C   LIG d   1      17.046 136.764  -3.828 -0.06 -0.17    +0.293    540.994
ATOM     24  C   LIG d   1      15.829 136.430  -0.211 -0.28 -0.03    +0.038    540.994
ATOM     25  C   LIG d   1      14.656 137.159  -0.091 -0.38 -0.04    +0.053    540.994
ATOM     26  C   LIG d   1      14.206 137.624   1.145 -0.40 -0.03    +0.036    540.994
ATOM     27 CL   LIG d   1      12.726 138.510   1.175 -0.80 +0.06    -0.084    540.994
ATOM     28  C   LIG d   1      14.960 137.354   2.307 -0.39 -0.03    +0.024    540.994
ATOM     29  C   LIG d   1      16.165 136.612   2.216 -0.37 -0.00    +0.004    540.994
ATOM     30  C   LIG d   1      16.611 136.138   0.960 -0.28 -0.02    +0.030    540.994
TER
ENDMDL
MODEL        9
USER    Run = 9
USER    Cluster Rank = 4
USER    Number of conformations in this cluster = 1
USER  
USER    RMSD from reference structure       = 539.859 A
USER  
USER    Estimated Free Energy of Binding    =  -11.16 kcal/mol  [=(1)+(2)+(3)-(4)]
USER    Estimated Inhibition Constant, Ki   =    6.58 nM (nanomolar)  [Temperature = 298.15 K]
USER    
USER    (1) Final Intermolecular Energy     =  -12.65 kcal/mol
USER        vdW + Hbond + desolv Energy     =  -12.38 kcal/mol
USER        Electrostatic Energy            =   -0.28 kcal/mol
USER    (2) Final Total Internal Energy     =   -1.68 kcal/mol
USER    (3) Torsional Free Energy           =   +1.49 kcal/mol
USER    (4) Unbound System's Energy  [=(2)] =   -1.68 kcal/mol
USER    
USER    
USER  
USER    DPF = ligand_protein_tz.dpf
USER    NEWDPF move	ligand.pdbqt
USER    NEWDPF about	260.046000 76.382000 -485.586000
USER    NEWDPF tran0	16.875491 131.561362 -5.416355
USER    NEWDPF axisangle0	-0.680380 -0.573947 -0.455706 -172.017468
USER    NEWDPF quaternion0	-0.678730 -0.572555 -0.454601 -0.069604
USER    NEWDPF dihe0	15.46 -26.91 -164.81 0.54 43.81 
USER  
USER                              x       y       z    vdW   Elec        q     RMS 
ATOM      1  C   LIG d   1      17.112 133.785  -1.365 -0.27 +0.02    -0.040    539.859
ATOM      2  C   LIG d   1      17.973 132.715  -1.085 -0.36 -0.01    +0.010    539.859
ATOM      3  C   LIG d   1      18.529 132.557   0.188 -0.36 -0.02    +0.023    539.859
ATOM      4  C   LIG d   1      18.233 133.480   1.219 -0.23 -0.04    +0.044    539.859
ATOM      5  C   LIG d   1      17.389 134.545   0.960 -0.19 -0.02    +0.023    539.859
ATOM      6  C   LIG d   1      16.827 134.703  -0.328 -0.29 -0.01    +0.010    539.859
ATOM      7  C   LIG d   1      18.754 133.319   2.430 -0.42 -0.10    +0.099    539.859
ATOM      8  N   LIG d   1      19.211 133.180   3.501 -4.19 +0.21    -0.191    539.859
ATOM      9  C   LIG d   1      16.487 133.963  -2.755 -0.21 -0.09    +0.168    539.859
ATOM     10  N   LIG d   1      15.268 133.150  -2.980 -0.15 +0.17    -0.340    539.859
ATOM     11  C   LIG d   1      14.258 133.127  -2.131 -0.13 -0.09    +0.183    539.859
ATOM     12  N   LIG d   1      13.282 132.276  -2.634 -0.34 +0.18    -0.360    539.859
ATOM     13  C   LIG d   1      13.771 131.760  -3.880 -0.51 -0.05    +0.115    539.859
ATOM     14  HN  LIG d   1      12.385 132.058  -2.199 +0.09 -0.10    +0.166    539.859
ATOM     15  C   LIG d   1      14.982 132.331  -4.034 -0.42 -0.02    +0.056    539.859
ATOM     16  C   LIG d   1      15.950 132.124  -5.197 -0.23 -0.10    +0.331    539.859
ATOM     17  N   LIG d   1      17.309 132.407  -4.732 -0.34 -0.04    +0.104    539.859
ATOM     18  C   LIG d   1      17.716 133.644  -5.411 -0.13 -0.13    +0.375    539.859
ATOM     19  C   LIG d   1      19.007 134.219  -4.753 -0.07 -0.12    +0.253    539.859
ATOM     20  O   LIG d   1      19.309 135.384  -4.927 -0.15 +0.14    -0.271    539.859
ATOM     21  N   LIG d   1      19.797 133.377  -3.963 -0.18 +0.18    -0.315    539.859
ATOM     22  C   LIG d   1      19.370 131.986  -3.797 -0.42 -0.09    +0.162    539.859
ATOM     23  C   LIG d   1      18.340 131.365  -4.756 -0.43 -0.11    +0.293    539.859
ATOM     24  C   LIG d   1      20.952 133.775  -3.327 -0.37 -0.03    +0.038    539.859
ATOM     25  C   LIG d   1      20.787 134.104  -1.990 -0.24 -0.04    +0.053    539.859
ATOM     26  C   LIG d   1      21.860 134.518  -1.200 -0.27 -0.04    +0.036    539.859
ATOM     27 CL   LIG d   1      21.538 134.889   0.454 -0.23 +0.10    -0.084    539.859
ATOM     28  C   LIG d   1      23.148 134.612  -1.769 -0.41 -0.03    +0.024    539.859
ATOM     29  C   LIG d   1      23.348 134.285  -3.135 -0.50 -0.00    +0.004    539.859
ATOM     30  C   LIG d   1      22.257 133.859  -3.926 -0.46 -0.02    +0.030    539.859
TER
ENDMDL
MODEL        1
USER    Run = 1
USER    Cluster Rank = 5
USER    Number of conformations in this cluster = 1
USER  
USER    RMSD from reference structure       = 541.230 A
USER  
USER    Estimated Free Energy of Binding    =   -9.64 kcal/mol  [=(1)+(2)+(3)-(4)]
USER    Estimated Inhibition Constant, Ki   =   86.08 nM (nanomolar)  [Temperature = 298.15 K]
USER    
USER    (1) Final Intermolecular Energy     =  -11.13 kcal/mol
USER        vdW + Hbond + desolv Energy     =  -10.48 kcal/mol
USER        Electrostatic Energy            =   -0.65 kcal/mol
USER    (2) Final Total Internal Energy     =   -2.68 kcal/mol
USER    (3) Torsional Free Energy           =   +1.49 kcal/mol
USER    (4) Unbound System's Energy  [=(2)] =   -2.68 kcal/mol
USER    
USER    
USER  
USER    DPF = ligand_protein_tz.dpf
USER    NEWDPF move	ligand.pdbqt
USER    NEWDPF about	260.046000 76.382000 -485.586000
USER    NEWDPF tran0	23.597863 132.887577 -4.530031
USER    NEWDPF axisangle0	-0.050370 -0.886038 -0.460868 -155.303882
USER    NEWDPF quaternion0	-0.049204 -0.865541 -0.450207 -0.213850
USER    NEWDPF dihe0	62.36 -91.12 -101.82 73.25 -93.33 
USER  
USER                              x       y       z    vdW   Elec        q     RMS 
ATOM      1  C   LIG d   1      20.230 132.438  -1.389 -0.37 +0.04    -0.040    541.230
ATOM      2  C   LIG d   1      21.247 132.928  -0.559 -0.32 -0.01    +0.010    541.230
ATOM      3  C   LIG d   1      21.051 133.049   0.820 -0.32 -0.03    +0.023    541.230
ATOM      4  C   LIG d   1      19.815 132.680   1.403 -0.37 -0.05    +0.044    541.230
ATOM      5  C   LIG d   1      18.798 132.199   0.599 -0.40 -0.02    +0.023    541.230
ATOM      6  C   LIG d   1      18.998 132.077  -0.796 -0.41 -0.01    +0.010    541.230
ATOM      7  C   LIG d   1      19.638 132.785   2.715 -0.47 -0.11    +0.099    541.230
ATOM      8  N   LIG d   1      19.477 132.877   3.873 -4.16 +0.23    -0.191    541.230
ATOM      9  C   LIG d   1      20.436 132.290  -2.903 -0.31 -0.12    +0.168    541.230
ATOM     10  N   LIG d   1      20.885 133.531  -3.577 -0.20 +0.23    -0.340    541.230
ATOM     11  C   LIG d   1      21.998 133.599  -4.282 -0.30 -0.13    +0.183    541.230
ATOM     12  N   LIG d   1      22.125 134.891  -4.778 -0.27 +0.24    -0.360    541.230
ATOM     13  C   LIG d   1      20.988 135.635  -4.317 -0.31 -0.07    +0.115    541.230
ATOM     14  HN  LIG d   1      22.884 135.244  -5.360 -0.27 -0.12    +0.166    541.230
ATOM     15  C   LIG d   1      20.272 134.751  -3.594 -0.23 -0.04    +0.056    541.230
ATOM     16  C   LIG d   1      18.957 135.018  -2.864 -0.05 -0.20    +0.331    541.230
ATOM     17  N   LIG d   1      19.256 135.412  -1.487 -0.07 -0.07    +0.104    541.230
ATOM     18  C   LIG d   1      17.956 135.537  -0.814 -0.05 -0.25    +0.375    541.230
ATOM     19  C   LIG d   1      18.156 135.631   0.729 -0.12 -0.19    +0.253    541.230
ATOM     20  O   LIG d   1      17.225 135.396   1.476 -0.22 +0.22    -0.271    541.230
ATOM     21  N   LIG d   1      19.415 135.980   1.229 -0.02 +0.25    -0.315    541.230
ATOM     22  C   LIG d   1      20.488 136.247   0.269 -0.06 -0.13    +0.162    541.230
ATOM     23  C   LIG d   1      20.164 136.529  -1.208 -0.03 -0.21    +0.293    541.230
ATOM     24  C   LIG d   1      19.711 136.087   2.570 -0.10 -0.03    +0.038    541.230
ATOM     25  C   LIG d   1      20.993 135.685   2.908 -0.09 -0.05    +0.053    541.230
ATOM     26  C   LIG d   1      21.455 135.738   4.224 -0.12 -0.03    +0.036    541.230
ATOM     27 CL   LIG d   1      23.073 135.224   4.525 -0.23 +0.07    -0.084    541.230
ATOM     28  C   LIG d   1      20.599 136.207   5.243 -0.21 -0.02    +0.024    541.230
ATOM     29  C   LIG d   1      19.279 136.623   4.928 -0.21 -0.00    +0.004    541.230
ATOM     30  C   LIG d   1      18.822 136.573   3.591 -0.17 -0.03    +0.030    541.230
TER
ENDMDL
MODEL        6
USER    Run = 6
USER    Cluster Rank = 6
USER    Number of conformations in this cluster = 1
USER  
USER    RMSD from reference structure       = 539.382 A
USER  
USER    Estimated Free Energy of Binding    =   -9.34 kcal/mol  [=(1)+(2)+(3)-(4)]
USER    Estimated Inhibition Constant, Ki   =  141.36 nM (nanomolar)  [Temperature = 298.15 K]
USER    
USER    (1) Final Intermolecular Energy     =  -10.84 kcal/mol
USER        vdW + Hbond + desolv Energy     =   -9.87 kcal/mol
USER        Electrostatic Energy            =   -0.97 kcal/mol
USER    (2) Final Total Internal Energy     =   -2.54 kcal/mol
USER    (3) Torsional Free Energy           =   +1.49 kcal/mol
USER    (4) Unbound System's Energy  [=(2)] =   -2.54 kcal/mol
USER    
USER    
USER  
USER    DPF = ligand_protein_tz.dpf
USER    NEWDPF move	ligand.pdbqt
USER    NEWDPF about	260.046000 76.382000 -485.586000
USER    NEWDPF tran0	23.454832 130.149245 -2.465107
USER    NEWDPF axisangle0	0.076017 -0.044996 -0.996091 127.007822
USER    NEWDPF quaternion0	0.068033 -0.040270 -0.891466 0.446137
USER    NEWDPF dihe0	-51.34 7.08 109.49 -134.33 166.92 
USER  
USER                              x       y       z    vdW   Elec        q     RMS 
ATOM      1  C   LIG d   1      19.977 132.802  -3.975 -0.37 +0.02    -0.040    539.382
ATOM      2  C   LIG d   1      19.418 131.539  -4.216 -0.34 -0.01    +0.010    539.382
ATOM      3  C   LIG d   1      18.175 131.414  -4.846 -0.56 -0.01    +0.023    539.382
ATOM      4  C   LIG d   1      17.458 132.564  -5.251 -0.39 -0.01    +0.044    539.382
ATOM      5  C   LIG d   1      17.992 133.819  -5.018 -0.25 -0.01    +0.023    539.382
ATOM      6  C   LIG d   1      19.248 133.944  -4.380 -0.23 -0.01    +0.010    539.382
ATOM      7  C   LIG d   1      16.284 132.440  -5.860 -0.40 -0.02    +0.099    539.382
ATOM      8  N   LIG d   1      15.248 132.334  -6.398 -0.24 +0.04    -0.191    539.382
ATOM      9  C   LIG d   1      21.344 132.953  -3.294 -0.36 -0.13    +0.168    539.382
ATOM     10  N   LIG d   1      21.525 134.239  -2.580 -0.14 +0.28    -0.340    539.382
ATOM     11  C   LIG d   1      21.930 135.340  -3.183 -0.28 -0.13    +0.183    539.382
ATOM     12  N   LIG d   1      21.993 136.359  -2.240 -0.12 +0.26    -0.360    539.382
ATOM     13  C   LIG d   1      21.592 135.797  -0.982 -0.15 -0.10    +0.115    539.382
ATOM     14  HN  LIG d   1      22.272 137.325  -2.410 -0.10 -0.12    +0.166    539.382
ATOM     15  C   LIG d   1      21.319 134.506  -1.256 -0.22 -0.05    +0.056    539.382
ATOM     16  C   LIG d   1      20.851 133.439  -0.269 -0.18 -0.37    +0.331    539.382
ATOM     17  N   LIG d   1      19.540 132.947  -0.696 -0.23 -0.09    +0.104    539.382
ATOM     18  C   LIG d   1      18.575 133.982  -0.302 -0.11 -0.28    +0.375    539.382
ATOM     19  C   LIG d   1      17.200 133.725  -0.990 -0.23 -0.16    +0.253    539.382
ATOM     20  O   LIG d   1      16.388 134.626  -1.075 -0.21 +0.16    -0.271    539.382
ATOM     21  N   LIG d   1      16.928 132.454  -1.505 -0.21 +0.19    -0.315    539.382
ATOM     22  C   LIG d   1      17.955 131.419  -1.366 -0.31 -0.11    +0.162    539.382
ATOM     23  C   LIG d   1      19.104 131.589  -0.359 -0.32 -0.26    +0.293    539.382
ATOM     24  C   LIG d   1      15.753 132.112  -2.138 -0.41 -0.02    +0.038    539.382
ATOM     25  C   LIG d   1      15.151 133.152  -2.829 -0.38 -0.03    +0.053    539.382
ATOM     26  C   LIG d   1      13.959 132.971  -3.533 -0.54 -0.02    +0.036    539.382
ATOM     27 CL   LIG d   1      13.308 134.334  -4.366 -0.65 +0.04    -0.084    539.382
ATOM     28  C   LIG d   1      13.343 131.703  -3.542 -0.66 -0.01    +0.024    539.382
ATOM     29  C   LIG d   1      13.934 130.619  -2.842 -0.74 -0.00    +0.004    539.382
ATOM     30  C   LIG d   1      15.145 130.809  -2.138 -0.54 -0.02    +0.030    539.382
TER
ENDMDL
MODEL        4
USER    Run = 4
USER    Cluster Rank = 7
USER    Number of conformations in this cluster = 1
USER  
USER    RMSD from reference structure       = 538.638 A
USER  
USER    Estimated Free Energy of Binding    =   -9.34 kcal/mol  [=(1)+(2)+(3)-(4)]
USER    Estimated Inhibition Constant, Ki   =  142.28 nM (nanomolar)  [Temperature = 298.15 K]
USER    
USER    (1) Final Intermolecular Energy     =  -10.83 kcal/mol
USER        vdW + Hbond + desolv Energy     =  -10.22 kcal/mol
USER        Electrostatic Energy            =   -0.61 kcal/mol
USER    (2) Final Total Internal Energy     =   -0.95 kcal/mol
USER    (3) Torsional Free Energy           =   +1.49 kcal/mol
USER    (4) Unbound System's Energy  [=(2)] =   -0.95 kcal/mol
USER    
USER    
USER  
USER    DPF = ligand_protein_tz.dpf
USER    NEWDPF move	ligand.pdbqt
USER    NEWDPF about	260.046000 76.382000 -485.586000
USER    NEWDPF tran0	14.884242 134.977366 -0.747120
USER    NEWDPF axisangle0	-0.284527 0.919513 -0.271182 -82.791125
USER    NEWDPF quaternion0	-0.188144 0.608032 -0.179320 -0.750162
USER    NEWDPF dihe0	172.45 -25.14 -176.40 -85.65 59.34 
USER  
USER                              x       y       z    vdW   Elec        q     RMS 
ATOM      1  C   LIG d   1      14.968 133.757  -5.210 -0.33 +0.02    -0.040    538.638
ATOM      2  C   LIG d   1      14.544 135.086  -5.348 -0.35 -0.01    +0.010    538.638
ATOM      3  C   LIG d   1      14.209 135.604  -6.603 -0.33 -0.01    +0.023    538.638
ATOM      4  C   LIG d   1      14.296 134.794  -7.760 -0.40 -0.02    +0.044    538.638
ATOM      5  C   LIG d   1      14.718 133.481  -7.644 -0.35 -0.01    +0.023    538.638
ATOM      6  C   LIG d   1      15.056 132.958  -6.374 -0.42 -0.00    +0.010    538.638
ATOM      7  C   LIG d   1      13.965 135.287  -8.948 -0.48 -0.06    +0.099    538.638
ATOM      8  N   LIG d   1      13.674 135.719  -9.998 -0.46 +0.11    -0.191    538.638
ATOM      9  C   LIG d   1      15.329 133.173  -3.837 -0.30 -0.08    +0.168    538.638
ATOM     10  N   LIG d   1      14.243 132.379  -3.214 -0.27 +0.16    -0.340    538.638
ATOM     11  C   LIG d   1      12.968 132.697  -3.331 -0.29 -0.09    +0.183    538.638
ATOM     12  N   LIG d   1      12.216 131.757  -2.637 -0.30 +0.21    -0.360    538.638
ATOM     13  C   LIG d   1      13.136 130.815  -2.067 -0.57 -0.06    +0.115    538.638
ATOM     14  HN  LIG d   1      11.199 131.740  -2.549 -0.13 -0.12    +0.166    538.638
ATOM     15  C   LIG d   1      14.352 131.248  -2.455 -0.58 -0.03    +0.056    538.638
ATOM     16  C   LIG d   1      15.700 130.614  -2.120 -0.31 -0.18    +0.331    538.638
ATOM     17  N   LIG d   1      16.762 131.561  -2.461 -0.42 -0.06    +0.104    538.638
ATOM     18  C   LIG d   1      17.436 131.001  -3.640 -0.09 -0.17    +0.375    538.638
ATOM     19  C   LIG d   1      18.365 132.071  -4.288 -0.38 -0.11    +0.253    538.638
ATOM     20  O   LIG d   1      18.738 131.935  -5.438 -0.20 +0.08    -0.271    538.638
ATOM     21  N   LIG d   1      18.751 133.182  -3.530 -0.13 +0.18    -0.315    538.638
ATOM     22  C   LIG d   1      18.262 133.280  -2.153 -0.22 -0.10    +0.162    538.638
ATOM     23  C   LIG d   1      17.692 132.045  -1.436 -0.30 -0.20    +0.293    538.638
ATOM     24  C   LIG d   1      19.561 134.193  -3.998 -0.25 -0.02    +0.038    538.638
ATOM     25  C   LIG d   1      20.859 134.161  -3.512 -0.33 -0.04    +0.053    538.638
ATOM     26  C   LIG d   1      21.808 135.109  -3.894 -0.42 -0.02    +0.036    538.638
ATOM     27 CL   LIG d   1      23.395 134.962  -3.235 -0.64 +0.06    -0.084    538.638
ATOM     28  C   LIG d   1      21.445 136.133  -4.794 -0.44 -0.02    +0.024    538.638
ATOM     29  C   LIG d   1      20.124 136.194  -5.307 -0.33 -0.00    +0.004    538.638
ATOM     30  C   LIG d   1      19.170 135.225  -4.920 -0.20 -0.02    +0.030    538.638
TER
ENDMDL
MODEL        7
USER    Run = 7
USER    Cluster Rank = 8
USER    Number of conformations in this cluster = 1
USER  
USER    RMSD from reference structure       = 540.876 A
USER  
USER    Estimated Free Energy of Binding    =   -8.83 kcal/mol  [=(1)+(2)+(3)-(4)]
USER    Estimated Inhibition Constant, Ki   =  334.77 nM (nanomolar)  [Temperature = 298.15 K]
USER    
USER    (1) Final Intermolecular Energy     =  -10.33 kcal/mol
USER        vdW + Hbond + desolv Energy     =   -9.45 kcal/mol
USER        Electrostatic Energy            =   -0.88 kcal/mol
USER    (2) Final Total Internal Energy     =   -2.48 kcal/mol
USER    (3) Torsional Free Energy           =   +1.49 kcal/mol
USER    (4) Unbound System's Energy  [=(2)] =   -2.48 kcal/mol
USER    
USER    
USER  
USER    DPF = ligand_protein_tz.dpf
USER    NEWDPF move	ligand.pdbqt
USER    NEWDPF about	260.046000 76.382000 -485.586000
USER    NEWDPF tran0	16.922599 132.073498 -5.610645
USER    NEWDPF axisangle0	-0.811364 -0.335238 -0.478856 160.352478
USER    NEWDPF quaternion0	-0.799467 -0.330323 -0.471835 0.170618
USER    NEWDPF dihe0	127.28 28.65 89.23 -164.62 -174.86 
USER  
USER                              x       y       z    vdW   Elec        q     RMS 
ATOM      1  C   LIG d   1      18.104 134.214  -1.682 -0.17 +0.03    -0.040    540.876
ATOM      2  C   LIG d   1      18.024 132.899  -1.206 -0.33 -0.01    +0.010    540.876
ATOM      3  C   LIG d   1      18.200 132.616   0.153 -0.31 -0.02    +0.023    540.876
ATOM      4  C   LIG d   1      18.465 133.658   1.072 -0.29 -0.04    +0.044    540.876
ATOM      5  C   LIG d   1      18.552 134.963   0.620 -0.18 -0.02    +0.023    540.876
ATOM      6  C   LIG d   1      18.374 135.247  -0.754 -0.12 -0.01    +0.010    540.876
ATOM      7  C   LIG d   1      18.619 133.387   2.364 -0.37 -0.09    +0.099    540.876
ATOM      8  N   LIG d   1      18.756 133.151   3.504 -4.24 +0.21    -0.191    540.876
ATOM      9  C   LIG d   1      17.902 134.539  -3.169 -0.12 -0.09    +0.168    540.876
ATOM     10  N   LIG d   1      18.891 135.497  -3.718 -0.03 +0.20    -0.340    540.876
ATOM     11  C   LIG d   1      18.557 136.696  -4.157 -0.07 -0.11    +0.183    540.876
ATOM     12  N   LIG d   1      19.707 137.338  -4.599 -0.07 +0.22    -0.360    540.876
ATOM     13  C   LIG d   1      20.801 136.431  -4.401 -0.28 -0.07    +0.115    540.876
ATOM     14  HN  LIG d   1      19.763 138.278  -4.992 +0.07 -0.10    +0.166    540.876
ATOM     15  C   LIG d   1      20.239 135.331  -3.861 -0.22 -0.03    +0.056    540.876
ATOM     16  C   LIG d   1      20.953 134.044  -3.453 -0.23 -0.23    +0.331    540.876
ATOM     17  N   LIG d   1      21.189 134.075  -2.009 -0.23 -0.09    +0.104    540.876
ATOM     18  C   LIG d   1      21.929 135.317  -1.750 -0.15 -0.32    +0.375    540.876
ATOM     19  C   LIG d   1      21.951 135.622  -0.221 -0.14 -0.26    +0.253    540.876
ATOM     20  O   LIG d   1      22.202 136.745   0.169 -0.11 +0.21    -0.271    540.876
ATOM     21  N   LIG d   1      21.673 134.588   0.679 -0.08 +0.44    -0.315    540.876
ATOM     22  C   LIG d   1      21.379 133.260   0.135 -0.25 -0.23    +0.162    540.876
ATOM     23  C   LIG d   1      21.747 132.910  -1.316 -0.01 -0.36    +0.293    540.876
ATOM     24  C   LIG d   1      21.656 134.740   2.048 -0.13 -0.05    +0.038    540.876
ATOM     25  C   LIG d   1      22.003 133.599   2.756 -0.13 -0.09    +0.053    540.876
ATOM     26  C   LIG d   1      22.043 133.587   4.151 -0.30 -0.05    +0.036    540.876
ATOM     27 CL   LIG d   1      22.500 132.115   4.924 -0.53 +0.15    -0.084    540.876
ATOM     28  C   LIG d   1      21.720 134.760   4.866 -0.22 -0.03    +0.024    540.876
ATOM     29  C   LIG d   1      21.359 135.942   4.170 -0.12 -0.00    +0.004    540.876
ATOM     30  C   LIG d   1      21.328 135.947   2.756 -0.09 -0.03    +0.030    540.876
TER
ENDMDL


AVSFLD: # AVS field file
AVSFLD: #
AVSFLD: # Created by AutoDock
AVSFLD: #
AVSFLD: ndim=2           # number of dimensions in the field
AVSFLD: nspace=1         # number of physical coordinates
AVSFLD: veclen=7         # vector size
AVSFLD: dim1=30          # atoms
AVSFLD: dim2=8           # conformations
AVSFLD: data=Real       # data type (byte,integer,Real,double)
AVSFLD: field=uniform    # field coordinate layout
AVSFLD: label= x y z vdW Elec q RMS
AVSFLD: variable 1 file = ligand_protein_tz.dlg.pdb filetype = ascii offset = 5 stride = 12
AVSFLD: variable 2 file = ligand_protein_tz.dlg.pdb filetype = ascii offset = 6 stride = 12
AVSFLD: variable 3 file = ligand_protein_tz.dlg.pdb filetype = ascii offset = 7 stride = 12
AVSFLD: variable 4 file = ligand_protein_tz.dlg.pdb filetype = ascii offset = 8 stride = 12
AVSFLD: variable 5 file = ligand_protein_tz.dlg.pdb filetype = ascii offset = 9 stride = 12
AVSFLD: variable 6 file = ligand_protein_tz.dlg.pdb filetype = ascii offset = 10 stride = 12
AVSFLD: variable 7 file = ligand_protein_tz.dlg.pdb filetype = ascii offset = 11 stride = 12
AVSFLD: # end of file

>>> Closing the docking parameter file (DPF)...
This docking finished at:			11:36 32" a.m., 09/03/2025


________________________________________________________________________________

autodock4: Successful Completion on "anes-edwardb-linuxbox"

Real= 1m 35.07s,  CPU= 1m 34.67s,  System= 0.11s
________________________________________________________________________________

